LAMMPS FENE chain data file

        6144  atoms
           0  bonds
           0  angles
           0  dihedrals
           0  impropers

           2  atom types
           2  bond types
           0  angle types
           0  dihedral types
           0  improper types

-80.702957 80.702957 xlo xhi
-80.702957 80.702957 ylo yhi
-80.702957 80.702957 zlo zhi

Masses

  1  28.0855
  2  15.9994

Atoms

         1       1       1    0.0000    8.8795  -62.9559   76.5813   0   0   0
         2       2       1    0.0000   50.7701  -59.4367  -10.7465   0   0   0
         3       3       1    0.0000   -2.3757  -61.4303   55.0158   0   0   0
         4       4       1    0.0000  -44.5718  -33.3369  -53.6488   0   0   0
         5       5       1    0.0000  -62.0393  -11.8938  -78.5669   0   0   0
         6       6       1    0.0000  -11.5838  -33.4703  -36.3649   0   0   0
         7       7       1    0.0000   58.6407   29.6114   64.6836   0   0   0
         8       8       1    0.0000   69.2234   23.3547  -16.0466   0   0   0
         9       9       1    0.0000   14.8624  -64.0766  -34.8532   0   0   0
        10      10       1    0.0000  -34.8575   52.8040   66.8469   0   0   0
        11      11       1    0.0000  -50.5757  -63.0688  -44.6339   0   0   0
        12      12       1    0.0000   52.3098   -7.5081   30.5124   0   0   0
        13      13       1    0.0000   36.0680  -44.9382  -58.5415   0   0   0
        14      14       1    0.0000   23.9420    8.6124  -31.8469   0   0   0
        15      15       1    0.0000  -29.1564   -2.9903  -60.8937   0   0   0
        16      16       1    0.0000   35.1889   28.9167   10.1707   0   0   0
        17      17       1    0.0000   10.7814  -56.5898   59.8715   0   0   0
        18      18       1    0.0000   56.3708  -29.2929  -37.0691   0   0   0
        19      19       1    0.0000    7.0928  -70.5727   56.8647   0   0   0
        20      20       1    0.0000   39.9941  -74.5141   -9.4934   0   0   0
        21      21       1    0.0000   74.2982  -68.2848  -66.3896   0   0   0
        22      22       1    0.0000  -11.1328  -39.2684    4.0934   0   0   0
        23      23       1    0.0000   39.5232  -80.0656  -21.3241   0   0   0
        24      24       1    0.0000  -73.0722   12.6542  -53.0274   0   0   0
        25      25       1    0.0000   51.6674   10.2709   79.4215   0   0   0
        26      26       1    0.0000    9.5727  -32.7866   -4.5469   0   0   0
        27      27       1    0.0000  -74.2973  -78.3288  -45.3841   0   0   0
        28      28       1    0.0000   33.4589    5.8647  -51.8131   0   0   0
        29      29       1    0.0000  -37.5747   62.7073  -58.4371   0   0   0
        30      30       1    0.0000    2.2009   28.3124   22.2517   0   0   0
        31      31       1    0.0000    7.3615  -74.1548   56.0650   0   0   0
        32      32       1    0.0000   -3.8031   -1.2274   30.2568   0   0   0
        33      33       1    0.0000  -63.5820   45.6070    0.6103   0   0   0
        34      34       1    0.0000  -72.0735   11.6417   38.3337   0   0   0
        35      35       1    0.0000  -57.4363   36.4424  -48.7387   0   0   0
        36      36       1    0.0000  -16.9097   34.8051   34.6388   0   0   0
        37      37       1    0.0000  -16.7455   51.0617   -1.3411   0   0   0
        38      38       1    0.0000   56.1883  -29.5276   53.4916   0   0   0
        39      39       1    0.0000    2.6978  -13.7084  -70.5329   0   0   0
        40      40       1    0.0000   79.7862    7.0546  -66.5232   0   0   0
        41      41       1    0.0000    3.1800   20.5812   15.9455   0   0   0
        42      42       1    0.0000   62.5085  -10.3216   36.7912   0   0   0
        43      43       1    0.0000    3.9097   18.9418   62.2816   0   0   0
        44      44       1    0.0000   49.3468   68.0984    1.1634   0   0   0
        45      45       1    0.0000   22.9819   12.5636   38.1415   0   0   0
        46      46       1    0.0000  -60.6508  -78.8616   38.5790   0   0   0
        47      47       1    0.0000   30.4369   58.1382  -21.9018   0   0   0
        48      48       1    0.0000   63.2096   -9.7346   56.6841   0   0   0
        49      49       1    0.0000   71.4638   70.1833   15.5482   0   0   0
        50      50       1    0.0000    2.2009   29.0148   44.0432   0   0   0
        51      51       1    0.0000   26.1748  -72.6258  -70.0602   0   0   0
        52      52       1    0.0000  -45.5575   24.0821  -58.7129   0   0   0
        53      53       1    0.0000   47.5946   -4.5498   37.2745   0   0   0
        54      54       1    0.0000   56.3253   14.3424   74.1809   0   0   0
        55      55       1    0.0000   59.5295  -42.1127  -23.0659   0   0   0
        56      56       1    0.0000   28.3149   63.7132   61.1552   0   0   0
        57      57       1    0.0000    2.9786   26.1452   74.6832   0   0   0
        58      58       1    0.0000  -53.1334   46.1381   49.0369   0   0   0
        59      59       1    0.0000   24.0807   79.7365  -22.8145   0   0   0
        60      60       1    0.0000   57.5075   29.3902   59.7140   0   0   0
        61      61       1    0.0000   -9.1087  -77.8329   58.1577   0   0   0
        62      62       1    0.0000  -18.4802  -51.1502  -33.5446   0   0   0
        63      63       1    0.0000    6.6192   39.6503  -42.0479   0   0   0
        64      64       1    0.0000  -63.9667   35.6854  -20.4901   0   0   0
        65      65       1    0.0000   62.4178   79.2809   68.6316   0   0   0
        66      66       1    0.0000  -77.2492   22.2982  -18.7618   0   0   0
        67      67       1    0.0000   58.0529   -3.3798   10.7966   0   0   0
        68      68       1    0.0000   38.7087  -49.8716  -11.4287   0   0   0
        69      69       1    0.0000   -8.6476  -75.5832  -61.9743   0   0   0
        70      70       1    0.0000  -50.4552   26.9358  -34.2824   0   0   0
        71      71       1    0.0000   35.5899  -10.9178   22.4277   0   0   0
        72      72       1    0.0000   59.5237   20.2642   13.5145   0   0   0
        73      73       1    0.0000   40.6418   -3.8258  -60.6755   0   0   0
        74      74       1    0.0000  -10.9754   23.6202  -73.9094   0   0   0
        75      75       1    0.0000  -14.7897   -4.6861    6.7707   0   0   0
        76      76       1    0.0000    3.5705  -32.8189  -62.5256   0   0   0
        77      77       1    0.0000   45.9802  -21.7684   46.0243   0   0   0
        78      78       1    0.0000   72.9484    5.0450   53.2561   0   0   0
        79      79       1    0.0000   79.0927  -28.5554  -71.4653   0   0   0
        80      80       1    0.0000   64.9565  -26.0765  -50.8591   0   0   0
        81      81       1    0.0000   17.4390  -16.4698    3.1428   0   0   0
        82      82       1    0.0000   40.5536  -32.2805  -52.9270   0   0   0
        83      83       1    0.0000  -35.2813   33.0983   77.5556   0   0   0
        84      84       1    0.0000  -37.8098  -14.3378    3.7536   0   0   0
        85      85       1    0.0000  -23.4005   53.4681  -70.5674   0   0   0
        86      86       1    0.0000  -16.2559   47.1727    6.2475   0   0   0
        87      87       1    0.0000  -74.2059    4.8057   67.0659   0   0   0
        88      88       1    0.0000   79.0666   17.3065   16.6599   0   0   0
        89      89       1    0.0000  -35.9668  -28.8009   -0.8431   0   0   0
        90      90       1    0.0000   33.0817  -39.1394   74.0227   0   0   0
        91      91       1    0.0000  -18.0327   45.0988   13.2627   0   0   0
        92      92       1    0.0000    4.5962  -65.1359   76.5286   0   0   0
        93      93       1    0.0000  -27.4513  -76.1385  -33.7517   0   0   0
        94      94       1    0.0000   76.9310  -43.1545   59.8146   0   0   0
        95      95       1    0.0000   68.0076  -73.2372  -16.4695   0   0   0
        96      96       1    0.0000    8.1464   43.9720  -39.9180   0   0   0
        97      97       1    0.0000   62.1833   11.6923  -80.3157   0   0   0
        98      98       1    0.0000  -28.3711  -40.5305  -63.8792   0   0   0
        99      99       1    0.0000   55.1712  -15.0512  -42.0439   0   0   0
       100     100       1    0.0000    2.6682  -25.9193    8.6833   0   0   0
       101     101       1    0.0000   29.2423   -5.9780  -77.1052   0   0   0
       102     102       1    0.0000   20.1602   40.6686  -37.2576   0   0   0
       103     103       1    0.0000   66.1653  -46.2189   45.2772   0   0   0
       104     104       1    0.0000  -54.5827   59.6956    4.9135   0   0   0
       105     105       1    0.0000  -59.4585  -54.5988  -49.1712   0   0   0
       106     106       1    0.0000  -22.1159   15.3192   27.8836   0   0   0
       107     107       1    0.0000   77.6486   72.6760  -54.2245   0   0   0
       108     108       1    0.0000  -52.8997  -61.5658   37.4006   0   0   0
       109     109       1    0.0000   77.0003   -9.3017   69.0717   0   0   0
       110     110       1    0.0000   57.4298   15.0001  -10.0869   0   0   0
       111     111       1    0.0000  -54.6411   46.8689   64.1389   0   0   0
       112     112       1    0.0000  -47.3601   72.6008  -26.6795   0   0   0
       113     113       1    0.0000  -16.1803   26.8496  -30.2242   0   0   0
       114     114       1    0.0000  -34.2023  -72.3822  -10.5286   0   0   0
       115     115       1    0.0000  -53.2076  -71.9123  -22.8769   0   0   0
       116     116       1    0.0000  -23.6962  -74.2323   45.9091   0   0   0
       117     117       1    0.0000   74.0285   80.5959   57.3471   0   0   0
       118     118       1    0.0000   77.2990    8.8493   74.8991   0   0   0
       119     119       1    0.0000   24.2962  -10.9072   40.1543   0   0   0
       120     120       1    0.0000   34.9230   79.7131   68.4906   0   0   0
       121     121       1    0.0000  -25.3945  -47.9903  -26.9664   0   0   0
       122     122       1    0.0000    3.5576   73.0308  -64.0956   0   0   0
       123     123       1    0.0000  -31.6404   53.1065  -13.9101   0   0   0
       124     124       1    0.0000  -71.8536   -3.6659   44.9088   0   0   0
       125     125       1    0.0000   47.5230  -78.4229  -12.1188   0   0   0
       126     126       1    0.0000   13.2821    7.6427  -28.8593   0   0   0
       127     127       1    0.0000  -14.2295   48.5274   16.0289   0   0   0
       128     128       1    0.0000   10.4391    1.8949   51.2088   0   0   0
       129     129       1    0.0000   50.4945  -11.0731   -4.0094   0   0   0
       130     130       1    0.0000  -79.6590   33.7700   68.5844   0   0   0
       131     131       1    0.0000  -63.0874  -34.2612   68.6392   0   0   0
       132     132       1    0.0000   50.2163   -6.6721   38.5432   0   0   0
       133     133       1    0.0000   72.8315  -23.0566   23.1759   0   0   0
       134     134       1    0.0000   44.6806  -75.0097   53.7520   0   0   0
       135     135       1    0.0000   21.4812  -30.8529   52.4662   0   0   0
       136     136       1    0.0000   39.6496  -53.9588   53.8911   0   0   0
       137     137       1    0.0000  -61.5751   42.1202  -12.1972   0   0   0
       138     138       1    0.0000  -12.1019  -25.5788  -79.7373   0   0   0
       139     139       1    0.0000    8.4479  -54.1606   51.4210   0   0   0
       140     140       1    0.0000   64.8994  -17.0053   41.8674   0   0   0
       141     141       1    0.0000  -64.3589   62.3140  -51.8306   0   0   0
       142     142       1    0.0000   -8.7931   62.9262   69.7184   0   0   0
       143     143       1    0.0000  -49.7729   33.5235  -38.7804   0   0   0
       144     144       1    0.0000  -24.7517  -59.5037   -6.8858   0   0   0
       145     145       1    0.0000   -1.8412   45.4898  -33.2718   0   0   0
       146     146       1    0.0000   72.6620   33.7291   26.9040   0   0   0
       147     147       1    0.0000   77.0008   -0.1307   63.3163   0   0   0
       148     148       1    0.0000    8.1427  -17.2879  -27.8184   0   0   0
       149     149       1    0.0000   49.2547  -26.7462   -7.2276   0   0   0
       150     150       1    0.0000   64.3177   51.6866    9.6502   0   0   0
       151     151       1    0.0000  -22.1747   -4.0737  -31.2697   0   0   0
       152     152       1    0.0000  -12.9822   28.2389   77.3615   0   0   0
       153     153       1    0.0000  -71.1508   24.5478   21.4523   0   0   0
       154     154       1    0.0000  -32.0612  -79.0919   41.1359   0   0   0
       155     155       1    0.0000   69.0172  -53.1087  -22.8837   0   0   0
       156     156       1    0.0000   23.2453  -79.6550  -61.4355   0   0   0
       157     157       1    0.0000  -33.2102  -22.3300  -31.2246   0   0   0
       158     158       1    0.0000  -60.5108   13.9191   61.1437   0   0   0
       159     159       1    0.0000  -28.5449  -55.0917   60.2135   0   0   0
       160     160       1    0.0000   -7.5117  -30.4709   16.9801   0   0   0
       161     161       1    0.0000   19.2151  -25.2545   44.7386   0   0   0
       162     162       1    0.0000  -67.8422  -52.1667   -8.6694   0   0   0
       163     163       1    0.0000   43.2867   62.7038   43.8576   0   0   0
       164     164       1    0.0000  -26.7325   61.3285   10.2636   0   0   0
       165     165       1    0.0000  -42.6917  -70.3077   -9.4289   0   0   0
       166     166       1    0.0000   29.1946   -0.5842   27.1300   0   0   0
       167     167       1    0.0000    1.5914  -46.3483  -30.4451   0   0   0
       168     168       1    0.0000  -34.5208   62.6863   72.0923   0   0   0
       169     169       1    0.0000  -19.3895   -0.5076   23.5773   0   0   0
       170     170       1    0.0000   12.8435   60.8417   60.0922   0   0   0
       171     171       1    0.0000   52.1707   76.0257   73.9588   0   0   0
       172     172       1    0.0000   39.2054   66.4931  -24.6162   0   0   0
       173     173       1    0.0000  -41.5120   64.9485    1.6249   0   0   0
       174     174       1    0.0000   32.1604  -29.3239  -75.3125   0   0   0
       175     175       1    0.0000  -31.6365  -42.7508   66.1192   0   0   0
       176     176       1    0.0000  -13.7202   53.6890  -69.3748   0   0   0
       177     177       1    0.0000   13.9794  -54.9971   34.7144   0   0   0
       178     178       1    0.0000  -36.6732   42.2433  -41.3197   0   0   0
       179     179       1    0.0000   68.9828   14.9243    7.4445   0   0   0
       180     180       1    0.0000   30.4926   24.9812   41.7730   0   0   0
       181     181       1    0.0000  -36.8451   59.6417   67.6072   0   0   0
       182     182       1    0.0000  -23.6165  -24.9746   68.2612   0   0   0
       183     183       1    0.0000   -6.6419   62.5741  -38.8138   0   0   0
       184     184       1    0.0000   59.6071  -30.0835   71.8940   0   0   0
       185     185       1    0.0000   37.3135   65.3767  -64.5839   0   0   0
       186     186       1    0.0000   -6.0265   75.6815  -61.0090   0   0   0
       187     187       1    0.0000   33.4242   68.4582   75.0818   0   0   0
       188     188       1    0.0000   28.3408   14.4166   29.3209   0   0   0
       189     189       1    0.0000   24.6724   17.6182  -71.2270   0   0   0
       190     190       1    0.0000   36.1333  -78.7675    5.0851   0   0   0
       191     191       1    0.0000  -79.8570  -67.0448  -47.3854   0   0   0
       192     192       1    0.0000  -29.6806   63.9052   60.4878   0   0   0
       193     193       1    0.0000  -77.9261  -57.1625  -42.3674   0   0   0
       194     194       1    0.0000   53.6718  -36.3853   38.7921   0   0   0
       195     195       1    0.0000   60.4603  -55.4174   73.0753   0   0   0
       196     196       1    0.0000   38.1955   40.4578  -29.6130   0   0   0
       197     197       1    0.0000   70.8212  -77.4241  -12.3027   0   0   0
       198     198       1    0.0000  -10.1504    7.8255  -22.9465   0   0   0
       199     199       1    0.0000  -62.4441  -36.5088   61.2284   0   0   0
       200     200       1    0.0000  -57.6691   -2.1389   44.7827   0   0   0
       201     201       1    0.0000   26.3213  -30.7708  -21.1196   0   0   0
       202     202       1    0.0000  -26.1164  -75.9306   70.1805   0   0   0
       203     203       1    0.0000  -30.9586   51.3961  -29.9859   0   0   0
       204     204       1    0.0000  -63.0104  -31.7074   56.2724   0   0   0
       205     205       1    0.0000  -69.1871  -59.0214   27.8788   0   0   0
       206     206       1    0.0000   -2.8111   45.5795   22.3801   0   0   0
       207     207       1    0.0000   66.2981  -73.9004  -24.9689   0   0   0
       208     208       1    0.0000    2.7882   53.7635   52.0800   0   0   0
       209     209       1    0.0000    4.2765   50.2957   37.3015   0   0   0
       210     210       1    0.0000   24.9715   41.0570   34.2171   0   0   0
       211     211       1    0.0000   -2.8305   42.1162  -79.6646   0   0   0
       212     212       1    0.0000  -60.8024  -45.6986   74.4221   0   0   0
       213     213       1    0.0000   78.5976   44.1061  -46.3761   0   0   0
       214     214       1    0.0000  -13.4895   56.9607   39.7886   0   0   0
       215     215       1    0.0000   22.4038  -19.8442  -56.3775   0   0   0
       216     216       1    0.0000   78.0674    9.2642  -52.5669   0   0   0
       217     217       1    0.0000   44.2534    8.9208  -14.0031   0   0   0
       218     218       1    0.0000  -21.0497   19.8419   18.3267   0   0   0
       219     219       1    0.0000   54.0830  -64.7096  -21.5626   0   0   0
       220     220       1    0.0000  -46.6302   73.6205    1.4248   0   0   0
       221     221       1    0.0000   59.3026   17.8727   10.8214   0   0   0
       222     222       1    0.0000  -29.8040  -74.0929  -33.0177   0   0   0
       223     223       1    0.0000  -14.8838   27.8440   58.4207   0   0   0
       224     224       1    0.0000   43.7151    0.7269  -50.5647   0   0   0
       225     225       1    0.0000  -38.2896   -8.6313   38.2405   0   0   0
       226     226       1    0.0000  -10.0431   35.4119   64.3970   0   0   0
       227     227       1    0.0000  -67.7063  -27.5912   -5.4403   0   0   0
       228     228       1    0.0000  -79.9607  -33.8323   12.7547   0   0   0
       229     229       1    0.0000   21.4462   27.6857  -20.1850   0   0   0
       230     230       1    0.0000   25.9784   16.0733  -49.2669   0   0   0
       231     231       1    0.0000  -16.3434   29.2925   30.5925   0   0   0
       232     232       1    0.0000  -70.7254   72.4310   23.9632   0   0   0
       233     233       1    0.0000   41.0920  -22.9345  -22.4242   0   0   0
       234     234       1    0.0000    0.0449  -53.2010   38.8735   0   0   0
       235     235       1    0.0000  -23.5939   31.5630  -62.0914   0   0   0
       236     236       1    0.0000  -80.0701   64.2796   57.9808   0   0   0
       237     237       1    0.0000   75.8335   73.1167  -71.5846   0   0   0
       238     238       1    0.0000   -3.2701   78.4070   68.4754   0   0   0
       239     239       1    0.0000   41.5529  -23.3679  -43.4952   0   0   0
       240     240       1    0.0000  -16.7103   -3.0190  -58.3224   0   0   0
       241     241       1    0.0000   -5.8105   -6.5390   17.1273   0   0   0
       242     242       1    0.0000   71.5750    2.4202    1.8544   0   0   0
       243     243       1    0.0000   15.2596   -5.2116   52.3279   0   0   0
       244     244       1    0.0000  -26.1752   66.2983  -70.8118   0   0   0
       245     245       1    0.0000   73.4713   76.2300  -43.1491   0   0   0
       246     246       1    0.0000   -9.9167   61.6096   54.1834   0   0   0
       247     247       1    0.0000    8.9316    5.5564  -68.0323   0   0   0
       248     248       1    0.0000  -20.2446   -7.1837   -4.6478   0   0   0
       249     249       1    0.0000    5.6885   54.3926  -26.8185   0   0   0
       250     250       1    0.0000   68.0053   49.8779  -44.4628   0   0   0
       251     251       1    0.0000   22.9108  -53.3233  -78.7362   0   0   0
       252     252       1    0.0000   47.5186    9.0441  -39.5281   0   0   0
       253     253       1    0.0000   -1.3605   54.5276  -17.8741   0   0   0
       254     254       1    0.0000  -33.4520  -50.8141  -33.9437   0   0   0
       255     255       1    0.0000   78.6773  -69.8637   28.0310   0   0   0
       256     256       1    0.0000  -26.8334  -21.3447   64.6247   0   0   0
       257     257       1    0.0000   46.8151  -32.6835  -46.9417   0   0   0
       258     258       1    0.0000    3.0511  -47.9597    2.4875   0   0   0
       259     259       1    0.0000    3.5608  -35.7897   41.6325   0   0   0
       260     260       1    0.0000   22.9717    2.6981   -8.3321   0   0   0
       261     261       1    0.0000   62.5989   56.5843    9.4695   0   0   0
       262     262       1    0.0000    7.2978  -14.5267   56.3950   0   0   0
       263     263       1    0.0000   56.0121   76.3092   -1.7727   0   0   0
       264     264       1    0.0000   66.6258  -54.8292  -47.4746   0   0   0
       265     265       1    0.0000  -76.7047  -26.0752  -28.0958   0   0   0
       266     266       1    0.0000   67.6269  -15.1937  -16.9721   0   0   0
       267     267       1    0.0000  -45.6988   71.7517   67.1565   0   0   0
       268     268       1    0.0000  -12.3297   20.3848  -57.0594   0   0   0
       269     269       1    0.0000   76.3746  -33.2183    3.0332   0   0   0
       270     270       1    0.0000  -25.1063  -46.8193  -38.6924   0   0   0
       271     271       1    0.0000    1.8056    2.1914   30.4626   0   0   0
       272     272       1    0.0000    6.0322   20.5040    9.6501   0   0   0
       273     273       1    0.0000  -24.3778  -68.9432    4.9365   0   0   0
       274     274       1    0.0000    5.4455    4.6636  -62.2257   0   0   0
       275     275       1    0.0000  -78.5449   34.2215   71.0149   0   0   0
       276     276       1    0.0000  -48.9136  -51.2693   63.3852   0   0   0
       277     277       1    0.0000   36.1608   60.8825  -61.1517   0   0   0
       278     278       1    0.0000   55.9886    3.5455   31.2701   0   0   0
       279     279       1    0.0000   18.9409   46.6126  -46.6452   0   0   0
       280     280       1    0.0000  -17.1911  -14.3697  -48.8135   0   0   0
       281     281       1    0.0000   17.4466  -49.2468   -2.2134   0   0   0
       282     282       1    0.0000  -77.6701   49.7675   36.9304   0   0   0
       283     283       1    0.0000  -77.5523  -69.3799  -71.1542   0   0   0
       284     284       1    0.0000  -32.0281   -8.0717  -79.7671   0   0   0
       285     285       1    0.0000   -8.6315   33.6689  -15.7336   0   0   0
       286     286       1    0.0000  -51.0469  -73.5772   80.0395   0   0   0
       287     287       1    0.0000   67.1064  -46.5127  -49.5212   0   0   0
       288     288       1    0.0000   67.2573   68.6673   38.5523   0   0   0
       289     289       1    0.0000   65.1560  -62.7296    7.1798   0   0   0
       290     290       1    0.0000  -61.0234  -46.8458    1.4724   0   0   0
       291     291       1    0.0000   51.9319  -63.2231  -54.9169   0   0   0
       292     292       1    0.0000  -69.8873  -45.5134  -40.6553   0   0   0
       293     293       1    0.0000  -63.2334  -67.2912    7.2684   0   0   0
       294     294       1    0.0000  -24.2996  -47.1114   56.8391   0   0   0
       295     295       1    0.0000  -66.6947   26.5067   17.6280   0   0   0
       296     296       1    0.0000  -67.6510  -66.9595  -66.2586   0   0   0
       297     297       1    0.0000  -68.8663    6.0553  -75.8299   0   0   0
       298     298       1    0.0000  -12.6741   42.5456   36.1092   0   0   0
       299     299       1    0.0000    0.9260   68.1992  -80.4280   0   0   0
       300     300       1    0.0000   21.8824  -66.4266   12.5825   0   0   0
       301     301       1    0.0000   32.9896   27.2362   11.3904   0   0   0
       302     302       1    0.0000   11.3619   16.1779  -66.3594   0   0   0
       303     303       1    0.0000   12.8893   23.2813   40.0725   0   0   0
       304     304       1    0.0000  -47.7203   -9.1710    5.0158   0   0   0
       305     305       1    0.0000   46.8054  -33.3907   11.3314   0   0   0
       306     306       1    0.0000  -12.7366  -39.4665   64.1641   0   0   0
       307     307       1    0.0000   53.7162   64.8093  -78.7295   0   0   0
       308     308       1    0.0000   -0.5371   11.8313   -3.8306   0   0   0
       309     309       1    0.0000   20.4273   12.0746   51.0056   0   0   0
       310     310       1    0.0000   24.7280  -16.9335  -42.6931   0   0   0
       311     311       1    0.0000   67.0957  -65.8423  -12.2427   0   0   0
       312     312       1    0.0000   29.8962    9.3304  -69.9920   0   0   0
       313     313       1    0.0000  -29.3607  -47.9553   76.6867   0   0   0
       314     314       1    0.0000   46.5916  -76.8813   72.5335   0   0   0
       315     315       1    0.0000  -28.3568   38.9638   41.1658   0   0   0
       316     316       1    0.0000  -73.6697  -22.1356    8.0688   0   0   0
       317     317       1    0.0000   30.7061   62.7645  -65.8699   0   0   0
       318     318       1    0.0000    7.0461  -48.0509  -77.6405   0   0   0
       319     319       1    0.0000   62.1907  -26.4118  -36.4193   0   0   0
       320     320       1    0.0000  -47.7569   20.9210   77.7185   0   0   0
       321     321       1    0.0000  -43.7354  -18.6111    7.3703   0   0   0
       322     322       1    0.0000   74.1512   44.9185   49.7259   0   0   0
       323     323       1    0.0000  -17.1359  -54.9697   11.5286   0   0   0
       324     324       1    0.0000   74.5112  -39.0383   -1.7111   0   0   0
       325     325       1    0.0000  -28.6997  -75.5537  -50.9268   0   0   0
       326     326       1    0.0000    8.1204  -69.8035   72.8867   0   0   0
       327     327       1    0.0000  -63.3623   26.7523  -50.6156   0   0   0
       328     328       1    0.0000   74.8926   76.0064   73.2746   0   0   0
       329     329       1    0.0000   -0.9992   -7.0677    8.4746   0   0   0
       330     330       1    0.0000   72.0702  -67.4218   72.3728   0   0   0
       331     331       1    0.0000   14.7909   25.8804  -16.2921   0   0   0
       332     332       1    0.0000  -76.8334   70.2511   25.1939   0   0   0
       333     333       1    0.0000   66.5565   72.5420  -47.2801   0   0   0
       334     334       1    0.0000  -35.0024   39.7303   10.9603   0   0   0
       335     335       1    0.0000   44.8494   18.3186   79.6761   0   0   0
       336     336       1    0.0000  -68.2955   76.0871  -22.6830   0   0   0
       337     337       1    0.0000    8.4131    8.0425   74.1805   0   0   0
       338     338       1    0.0000   53.0101  -20.5690   28.7344   0   0   0
       339     339       1    0.0000   13.2507  -35.0208   53.3495   0   0   0
       340     340       1    0.0000   35.7014  -74.0562  -62.3101   0   0   0
       341     341       1    0.0000  -45.0689    5.1052  -65.2218   0   0   0
       342     342       1    0.0000  -74.7241   10.8706   -9.1754   0   0   0
       343     343       1    0.0000  -68.8246   61.3533  -58.1671   0   0   0
       344     344       1    0.0000   21.8532  -73.4407  -45.9676   0   0   0
       345     345       1    0.0000   72.8807   -4.0929  -30.7602   0   0   0
       346     346       1    0.0000   -4.2470  -37.7311   17.5430   0   0   0
       347     347       1    0.0000  -43.9144   40.0949    4.5830   0   0   0
       348     348       1    0.0000   35.6557  -34.3622  -15.2834   0   0   0
       349     349       1    0.0000  -71.4959   35.4356  -21.4800   0   0   0
       350     350       1    0.0000   50.3621   23.3300   52.1251   0   0   0
       351     351       1    0.0000  -44.0731  -44.6564   -2.0715   0   0   0
       352     352       1    0.0000   47.7914   74.6108   20.7681   0   0   0
       353     353       1    0.0000  -71.7352   48.4382  -30.0036   0   0   0
       354     354       1    0.0000  -38.0336  -62.4490   41.8693   0   0   0
       355     355       1    0.0000  -33.0651   -4.5685   46.7314   0   0   0
       356     356       1    0.0000   13.7583  -59.2948  -47.1519   0   0   0
       357     357       1    0.0000   20.6449  -44.6565   -4.9074   0   0   0
       358     358       1    0.0000   -1.0071   20.7095   74.1053   0   0   0
       359     359       1    0.0000   79.5912  -42.4935   32.1113   0   0   0
       360     360       1    0.0000  -46.3120  -65.7467  -20.3610   0   0   0
       361     361       1    0.0000  -26.9581  -19.0555  -36.7480   0   0   0
       362     362       1    0.0000   75.9983  -62.7441  -75.7101   0   0   0
       363     363       1    0.0000   64.1652   71.1638   32.5168   0   0   0
       364     364       1    0.0000  -10.8244  -20.6124  -55.7844   0   0   0
       365     365       1    0.0000   38.8260  -15.0434  -71.9421   0   0   0
       366     366       1    0.0000  -39.0658   21.2220  -28.1199   0   0   0
       367     367       1    0.0000  -13.8126  -46.9601   16.4732   0   0   0
       368     368       1    0.0000   54.2732   65.2555   -4.3418   0   0   0
       369     369       1    0.0000  -17.1561  -71.8156  -11.6414   0   0   0
       370     370       1    0.0000  -33.6699   -1.0711   75.7105   0   0   0
       371     371       1    0.0000  -58.3885   13.1393   29.3240   0   0   0
       372     372       1    0.0000   76.5252   76.2291  -57.1418   0   0   0
       373     373       1    0.0000  -17.0314  -73.9962  -21.2757   0   0   0
       374     374       1    0.0000  -65.7491  -60.7664   75.1002   0   0   0