# LAMMPS Data File

9600 atoms
8800 bonds
1 atom types
1 bond types

-27.5 27.5 xlo xhi
-27.5 27.5 ylo yhi
-27.5 27.5 zlo zhi

Masses

1 1.00

Atoms

1 1 1 -4.398975 11.473718 11.198239 
2 1 1 -5.375236 11.441341 11.412400 
3 1 1 -6.351498 11.408965 11.626561 
4 1 1 -7.327759 11.376588 11.840723 
5 1 1 -8.304021 11.344212 12.054884 
6 1 1 -9.280283 11.311835 12.269045 
7 1 1 -10.256544 11.279458 12.483206 
8 1 1 -11.232806 11.247082 12.697368 
9 1 1 -12.209067 11.214705 12.911529 
10 1 1 -13.185329 11.182328 13.125690 
11 1 1 -14.161591 11.149952 13.339851 
12 1 1 -15.137852 11.117575 13.554012 
13 2 1 -8.593466 -17.252578 9.905595 
14 2 1 -7.688487 -17.659770 10.028919 
15 2 1 -6.783509 -18.066961 10.152244 
16 2 1 -5.878530 -18.474152 10.275569 
17 2 1 -4.973551 -18.881343 10.398894 
18 2 1 -4.068573 -19.288534 10.522218 
19 2 1 -3.163594 -19.695726 10.645543 
20 2 1 -2.258615 -20.102917 10.768868 
21 2 1 -1.353637 -20.510108 10.892193 
22 2 1 -0.448658 -20.917299 11.015517 
23 2 1 0.456321 -21.324490 11.138842 
24 2 1 1.361299 -21.731682 11.262167 
25 3 1 9.749707 -6.682916 -3.533933 
26 3 1 9.185836 -6.032413 -4.042750 
27 3 1 8.621964 -5.381910 -4.551567 
28 3 1 8.058093 -4.731407 -5.060385 
29 3 1 7.494222 -4.080904 -5.569202 
30 3 1 6.930351 -3.430401 -6.078019 
31 3 1 6.366480 -2.779897 -6.586837 
32 3 1 5.802609 -2.129394 -7.095654 
33 3 1 5.238738 -1.478891 -7.604471 
34 3 1 4.674867 -0.828388 -8.113289 
35 3 1 4.110996 -0.177885 -8.622106 
36 3 1 3.547125 0.472618 -9.130924 
37 4 1 5.280175 -22.311301 -10.284077 
38 4 1 5.935809 -21.887879 -10.909262 
39 4 1 6.591444 -21.464456 -11.534447 
40 4 1 7.247079 -21.041034 -12.159632 
41 4 1 7.902713 -20.617612 -12.784817 
42 4 1 8.558348 -20.194189 -13.410003 
43 4 1 9.213983 -19.770767 -14.035188 
44 4 1 9.869618 -19.347345 -14.660373 
45 4 1 10.525252 -18.923922 -15.285558 
46 4 1 11.180887 -18.500500 -15.910744 
47 4 1 11.836522 -18.077077 -16.535929 
48 4 1 12.492157 -17.653655 -17.161114 
49 5 1 6.576670 -15.163542 6.598911 
50 5 1 5.644925 -15.484949 6.767879 
51 5 1 4.713181 -15.806356 6.936846 
52 5 1 3.781437 -16.127763 7.105814 
53 5 1 2.849692 -16.449171 7.274781 
54 5 1 1.917948 -16.770578 7.443749 
55 5 1 0.986204 -17.091985 7.612716 
56 5 1 0.054459 -17.413392 7.781683 
57 5 1 -0.877285 -17.734799 7.950651 
58 5 1 -1.809029 -18.056206 8.119618 
59 5 1 -2.740774 -18.377613 8.288586 
60 5 1 -3.672518 -18.699020 8.457553 
61 6 1 -20.205770 -8.438924 24.347713 
62 6 1 -20.301899 -8.853293 23.442695 
63 6 1 -20.398028 -9.267662 22.537677 
64 6 1 -20.494157 -9.682031 21.632659 
65 6 1 -20.590286 -10.096400 20.727641 
66 6 1 -20.686415 -10.510769 19.822623 
67 6 1 -20.782543 -10.925138 18.917605 
68 6 1 -20.878672 -11.339507 18.012587 
69 6 1 -20.974801 -11.753876 17.107569 
70 6 1 -21.070930 -12.168245 16.202551 
71 6 1 -21.167059 -12.582614 15.297533 
72 6 1 -21.263188 -12.996983 14.392515 
73 7 1 -3.246189 -17.974373 9.193789 
74 7 1 -3.915270 -17.588218 8.558797 
75 7 1 -4.584351 -17.202063 7.923805 
76 7 1 -5.253433 -16.815908 7.288813 
77 7 1 -5.922514 -16.429753 6.653821 
78 7 1 -6.591595 -16.043598 6.018829 
79 7 1 -7.260676 -15.657443 5.383837 
80 7 1 -7.929758 -15.271289 4.748846 
81 7 1 -8.598839 -14.885134 4.113854 
82 7 1 -9.267920 -14.498979 3.478862 
83 7 1 -9.937001 -14.112824 2.843870 
84 7 1 -10.606083 -13.726669 2.208878 
85 8 1 11.045905 10.857101 2.278670 
86 8 1 11.306987 10.057782 1.737443 
87 8 1 11.568069 9.258464 1.196216 
88 8 1 11.829150 8.459146 0.654989 
89 8 1 12.090232 7.659828 0.113762 
90 8 1 12.351314 6.860509 -0.427465 
91 8 1 12.612395 6.061191 -0.968692 
92 8 1 12.873477 5.261873 -1.509919 
93 8 1 13.134559 4.462555 -2.051146 
94 8 1 13.395641 3.663237 -2.592373 
95 8 1 13.656722 2.863918 -3.133600 
96 8 1 13.917804 2.064600 -3.674827 
97 9 1 -4.215914 7.386994 -3.544861 
98 9 1 -4.632517 6.743791 -2.902418 
99 9 1 -5.049119 6.100588 -2.259976 
100 9 1 -5.465721 5.457385 -1.617534 
101 9 1 -5.882324 4.814181 -0.975091 
102 9 1 -6.298926 4.170978 -0.332649 
103 9 1 -6.715528 3.527775 0.309793 
104 9 1 -7.132130 2.884572 0.952236 
105 9 1 -7.548733 2.241369 1.594678 
106 9 1 -7.965335 1.598165 2.237120 
107 9 1 -8.381937 0.954962 2.879563 
108 9 1 -8.798540 0.311759 3.522005 
109 10 1 15.072230 -1.271079 -0.282592 
110 10 1 15.124184 -2.269678 -0.272511 
111 10 1 15.176139 -3.268276 -0.262430 
112 10 1 15.228093 -4.266875 -0.252348 
113 10 1 15.280048 -5.265473 -0.242267 
114 10 1 15.332003 -6.264072 -0.232186 
115 10 1 15.383957 -7.262670 -0.222105 
116 10 1 15.435912 -8.261269 -0.212024 
117 10 1 15.487866 -9.259868 -0.201943 
118 10 1 15.539821 -10.258466 -0.191861 
119 10 1 15.591775 -11.257065 -0.181780 
120 10 1 15.643730 -12.255663 -0.171699 
121 11 1 -14.258685 14.951356 -19.035244 
122 11 1 -13.551777 15.650810 -19.140336 
123 11 1 -12.844869 16.350265 -19.245428 
124 11 1 -12.137961 17.049719 -19.350520 
125 11 1 -11.431053 17.749174 -19.455612 
126 11 1 -10.724145 18.448628 -19.560704 
127 11 1 -10.017237 19.148083 -19.665796 
128 11 1 -9.310329 19.847537 -19.770888 
129 11 1 -8.603421 20.546992 -19.875980 
130 11 1 -7.896513 21.246446 -19.981072 
131 11 1 -7.189604 21.945901 -20.086164 
132 11 1 -6.482696 22.645355 -20.191256 
133 12 1 -22.147202 9.956347 12.316547 
134 12 1 -21.516847 9.180040 12.315552 
135 12 1 -20.886492 8.403734 12.314557 
136 12 1 -20.256137 7.627427 12.313562 
137 12 1 -19.625783 6.851121 12.312567 
138 12 1 -18.995428 6.074814 12.311572 
139 12 1 -18.365073 5.298507 12.310577 
140 12 1 -17.734719 4.522201 12.309582 
141 12 1 -17.104364 3.745894 12.308586 
142 12 1 -16.474009 2.969588 12.307591 
143 12 1 -15.843654 2.193281 12.306596 
144 12 1 -15.213300 1.416974 12.305601 
145 13 1 -23.352331 -14.418122 1.034473 
146 13 1 -22.361770 -14.477302 0.910836 
147 13 1 -21.371209 -14.536483 0.787199 
148 13 1 -20.380648 -14.595663 0.663561 
149 13 1 -19.390086 -14.654843 0.539924 
150 13 1 -18.399525 -14.714023 0.416287 
151 13 1 -17.408964 -14.773203 0.292650 
152 13 1 -16.418403 -14.832383 0.169013 
153 13 1 -15.427841 -14.891563 0.045376 
154 13 1 -14.437280 -14.950744 -0.078261 
155 13 1 -13.446719 -15.009924 -0.201898 
156 13 1 -12.456158 -15.069104 -0.325535 
157 14 1 -16.630290 4.317840 24.770541 
158 14 1 -17.323783 4.995452 24.525777 
159 14 1 -18.017275 5.673065 24.281013 
160 14 1 -18.710768 6.350677 24.036249 
161 14 1 -19.404260 7.028290 23.791485 
162 14 1 -20.097753 7.705903 23.546721 
163 14 1 -20.791245 8.383515 23.301957 
164 14 1 -21.484738 9.061128 23.057193 
165 14 1 -22.178230 9.738740 22.812429 
166 14 1 -22.871723 10.416353 22.567666 
167 14 1 -23.565215 11.093965 22.322902 
168 14 1 -24.258708 11.771578 22.078138 
169 15 1 13.759106 -9.673254 14.643123 
170 15 1 13.960504 -10.641798 14.789277 
171 15 1 14.161902 -11.610342 14.935431 
172 15 1 14.363301 -12.578886 15.081585 
173 15 1 14.564699 -13.547430 15.227739 
174 15 1 14.766097 -14.515975 15.373892 
175 15 1 14.967495 -15.484519 15.520046 
176 15 1 15.168894 -16.453063 15.666200 
177 15 1 15.370292 -17.421607 15.812354 
178 15 1 15.571690 -18.390151 15.958508 
179 15 1 15.773089 -19.358695 16.104662 
180 15 1 15.974487 -20.327240 16.250815 
181 16 1 -13.600803 -18.452198 -0.419166 
182 16 1 -12.936603 -17.773479 -0.105831 
183 16 1 -12.272403 -17.094760 0.207504 
184 16 1 -11.608202 -16.416041 0.520839 
185 16 1 -10.944002 -15.737323 0.834174 
186 16 1 -10.279802 -15.058604 1.147509 
187 16 1 -9.615602 -14.379885 1.460844 
188 16 1 -8.951402 -13.701166 1.774179 
189 16 1 -8.287202 -13.022447 2.087515 
190 16 1 -7.623002 -12.343728 2.400850 
191 16 1 -6.958802 -11.665009 2.714185 
192 16 1 -6.294602 -10.986290 3.027520 
193 17 1 20.159873 5.381671 15.140138 
194 17 1 19.456882 5.164608 15.817403 
195 17 1 18.753891 4.947546 16.494668 
196 17 1 18.050901 4.730483 17.171933 
197 17 1 17.347910 4.513421 17.849198 
198 17 1 16.644919 4.296359 18.526463 
199 17 1 15.941929 4.079296 19.203728 
200 17 1 15.238938 3.862234 19.880993 
201 17 1 14.535947 3.645171 20.558258 
202 17 1 13.832956 3.428109 21.235523 
203 17 1 13.129966 3.211046 21.912788 
204 17 1 12.426975 2.993984 22.590053 
205 18 1 13.530574 -19.776696 -11.140917 
206 18 1 12.870833 -19.216722 -10.639747 
207 18 1 12.211093 -18.656749 -10.138576 
208 18 1 11.551352 -18.096775 -9.637405 
209 18 1 10.891612 -17.536801 -9.136235 
210 18 1 10.231872 -16.976828 -8.635064 
211 18 1 9.572131 -16.416854 -8.133894 
212 18 1 8.912391 -15.856880 -7.632723 
213 18 1 8.252650 -15.296906 -7.131552 
214 18 1 7.592910 -14.736933 -6.630382 
215 18 1 6.933169 -14.176959 -6.129211 
216 18 1 6.273429 -13.616985 -5.628040 
217 19 1 -2.336877 -22.867321 -13.562369 
218 19 1 -2.599912 -22.051719 -14.077739 
219 19 1 -2.862947 -21.236118 -14.593109 
220 19 1 -3.125983 -20.420516 -15.108479 
221 19 1 -3.389018 -19.604914 -15.623849 
222 19 1 -3.652053 -18.789312 -16.139219 
223 19 1 -3.915088 -17.973710 -16.654588 
224 19 1 -4.178124 -17.158109 -17.169958 
225 19 1 -4.441159 -16.342507 -17.685328 
226 19 1 -4.704194 -15.526905 -18.200698 
227 19 1 -4.967229 -14.711303 -18.716068 
228 19 1 -5.230265 -13.895701 -19.231438 
229 20 1 14.304244 12.643208 3.077550 
230 20 1 15.185088 12.173380 3.135642 
231 20 1 16.065933 11.703552 3.193734 
232 20 1 16.946777 11.233724 3.251826 
233 20 1 17.827622 10.763896 3.309919 
234 20 1 18.708466 10.294068 3.368011 
235 20 1 19.589310 9.824240 3.426103 
236 20 1 20.470155 9.354412 3.484195 
237 20 1 21.350999 8.884584 3.542287 
238 20 1 22.231844 8.414756 3.600379 
239 20 1 23.112688 7.944928 3.658472 
240 20 1 23.993532 7.475099 3.716564 
241 21 1 3.149969 21.035302 0.261264 
242 21 1 2.685491 20.280842 0.725000 
243 21 1 2.221012 19.526383 1.188736 
244 21 1 1.756534 18.771924 1.652472 
245 21 1 1.292056 18.017464 2.116208 
246 21 1 0.827577 17.263005 2.579944 
247 21 1 0.363099 16.508546 3.043680 
248 21 1 -0.101379 15.754086 3.507415 
249 21 1 -0.565858 14.999627 3.971151 
250 21 1 -1.030336 14.245168 4.434887 
251 21 1 -1.494814 13.490708 4.898623 
252 21 1 -1.959293 12.736249 5.362359 
253 22 1 -18.941777 7.301751 -3.245044 
254 22 1 -19.123342 6.701896 -2.465808 
255 22 1 -19.304906 6.102042 -1.686571 
256 22 1 -19.486471 5.502187 -0.907335 
257 22 1 -19.668035 4.902333 -0.128099 
258 22 1 -19.849599 4.302478 0.651137 
259 22 1 -20.031164 3.702624 1.430373 
260 22 1 -20.212728 3.102769 2.209609 
261 22 1 -20.394293 2.502915 2.988845 
262 22 1 -20.575857 1.903060 3.768081 
263 22 1 -20.757422 1.303205 4.547317 
264 22 1 -20.938986 0.703351 5.326553 
265 23 1 10.313260 5.172445 -14.821064 
266 23 1 9.740030 4.865110 -14.061490 
267 23 1 9.166799 4.557775 -13.301917 
268 23 1 8.593568 4.250440 -12.542343 
269 23 1 8.020338 3.943105 -11.782770 
270 23 1 7.447107 3.635770 -11.023197 
271 23 1 6.873876 3.328435 -10.263623 
272 23 1 6.300645 3.021100 -9.504050 
273 23 1 5.727415 2.713765 -8.744476 
274 23 1 5.154184 2.406430 -7.984903 
275 23 1 4.580953 2.099095 -7.225330 
276 23 1 4.007723 1.791760 -6.465756 
277 24 1 -15.407417 -20.913575 1.358133 
278 24 1 -14.717196 -21.048531 0.647231 
279 24 1 -14.026975 -21.183488 -0.063671 
280 24 1 -13.336754 -21.318444 -0.774573 
281 24 1 -12.646533 -21.453401 -1.485475 
282 24 1 -11.956312 -21.588357 -2.196377 
283 24 1 -11.266091 -21.723313 -2.907280 
284 24 1 -10.575870 -21.858270 -3.618182 
285 24 1 -9.885649 -21.993226 -4.329084 
286 24 1 -9.195428 -22.128183 -5.039986 
287 24 1 -8.505207 -22.263139 -5.750888 
288 24 1 -7.814986 -22.398096 -6.461790 
289 25 1 -8.778469 4.328075 20.122472 
290 25 1 -9.079378 5.281359 20.149009 
291 25 1 -9.380287 6.234642 20.175545 
292 25 1 -9.681196 7.187926 20.202082 
293 25 1 -9.982105 8.141209 20.228618 
294 25 1 -10.283014 9.094493 20.255155 
295 25 1 -10.583923 10.047777 20.281691 
296 25 1 -10.884832 11.001060 20.308228 
297 25 1 -11.185741 11.954344 20.334764 
298 25 1 -11.486650 12.907627 20.361301 
299 25 1 -11.787559 13.860911 20.387837 
300 25 1 -12.088468 14.814194 20.414374 
301 26 1 0.082398 10.281595 9.064116 
302 26 1 0.495351 10.411858 9.965505 
303 26 1 0.908304 10.542121 10.866894 
304 26 1 1.321257 10.672384 11.768282 
305 26 1 1.734210 10.802647 12.669671 
306 26 1 2.147163 10.932910 13.571059 
307 26 1 2.560116 11.063174 14.472448 
308 26 1 2.973069 11.193437 15.373836 
309 26 1 3.386022 11.323700 16.275225 
310 26 1 3.798975 11.453963 17.176613 
311 26 1 4.211928 11.584226 18.078002 
312 26 1 4.624881 11.714489 18.979390 
313 27 1 20.123609 8.603449 -15.212639 
314 27 1 20.126170 9.165749 -16.039569 
315 27 1 20.128731 9.728049 -16.866498 
316 27 1 20.131293 10.290348 -17.693428 
317 27 1 20.133854 10.852648 -18.520357 
318 27 1 20.136415 11.414948 -19.347287 
319 27 1 20.138976 11.977248 -20.174216 
320 27 1 20.141537 12.539548 -21.001146 
321 27 1 20.144098 13.101848 -21.828075 
322 27 1 20.146659 13.664147 -22.655005 
323 27 1 20.149220 14.226447 -23.481934 
324 27 1 20.151781 14.788747 -24.308864 
325 28 1 -4.136808 -3.808360 5.901187 
326 28 1 -3.396139 -4.335977 5.485219 
327 28 1 -2.655470 -4.863594 5.069252 
328 28 1 -1.914800 -5.391212 4.653284 
329 28 1 -1.174131 -5.918829 4.237317 
330 28 1 -0.433462 -6.446446 3.821349 
331 28 1 0.307208 -6.974063 3.405382 
332 28 1 1.047877 -7.501680 2.989414 
333 28 1 1.788547 -8.029297 2.573447 
334 28 1 2.529216 -8.556915 2.157479 
335 28 1 3.269885 -9.084532 1.741512 
336 28 1 4.010555 -9.612149 1.325544 
337 29 1 -19.591771 7.755919 -22.238739 
338 29 1 -18.727177 7.305327 -22.016380 
339 29 1 -17.862582 6.854734 -21.794022 
340 29 1 -16.997988 6.404142 -21.571663 
341 29 1 -16.133394 5.953550 -21.349305 
342 29 1 -15.268799 5.502958 -21.126946 
343 29 1 -14.404205 5.052366 -20.904588 
344 29 1 -13.539611 4.601773 -20.682229 
345 29 1 -12.675016 4.151181 -20.459871 
346 29 1 -11.810422 3.700589 -20.237512 
347 29 1 -10.945828 3.249997 -20.015154 
348 29 1 -10.081233 2.799405 -19.792795 
349 30 1 5.266392 11.295823 -2.906104 
350 30 1 4.715552 12.123572 -2.799300 
351 30 1 4.164713 12.951321 -2.692495 
352 30 1 3.613873 13.779070 -2.585691 
353 30 1 3.063034 14.606820 -2.478887 
354 30 1 2.512194 15.434569 -2.372083 
355 30 1 1.961355 16.262318 -2.265278 
356 30 1 1.410515 17.090067 -2.158474 
357 30 1 0.859676 17.917816 -2.051670 
358 30 1 0.308836 18.745565 -1.944865 
359 30 1 -0.242003 19.573315 -1.838061 
360 30 1 -0.792843 20.401064 -1.731257 
361 31 1 -19.230652 -5.505096 11.976012 
362 31 1 -19.755138 -5.541791 11.125385 
363 31 1 -20.279624 -5.578487 10.274757 
364 31 1 -20.804111 -5.615183 9.424129 
365 31 1 -21.328597 -5.651879 8.573501 
366 31 1 -21.853083 -5.688575 7.722873 
367 31 1 -22.377569 -5.725270 6.872246 
368 31 1 -22.902055 -5.761966 6.021618 
369 31 1 -23.426541 -5.798662 5.170990 
370 31 1 -23.951028 -5.835358 4.320362 
371 31 1 -24.475514 -5.872054 3.469734 
372 31 1 -25.000000 -5.908750 2.619106 
373 32 1 12.267867 13.441997 -19.667486 
374 32 1 11.515305 12.879035 -20.009137 
375 32 1 10.762744 12.316073 -20.350788 
376 32 1 10.010183 11.753110 -20.692439 
377 32 1 9.257622 11.190148 -21.034089 
378 32 1 8.505060 10.627186 -21.375740 
379 32 1 7.752499 10.064224 -21.717391 
380 32 1 6.999938 9.501262 -22.059042 
381 32 1 6.247377 8.938300 -22.400693 
382 32 1 5.494815 8.375338 -22.742343 
383 32 1 4.742254 7.812376 -23.083994 
384 32 1 3.989693 7.249414 -23.425645 
385 33 1 -22.086667 -15.073493 15.242975 
386 33 1 -21.420799 -15.028430 15.987683 
387 33 1 -20.754932 -14.983366 16.732391 
388 33 1 -20.089064 -14.938303 17.477099 
389 33 1 -19.423197 -14.893240 18.221807 
390 33 1 -18.757330 -14.848177 18.966515 
391 33 1 -18.091462 -14.803114 19.711223 
392 33 1 -17.425595 -14.758051 20.455931 
393 33 1 -16.759727 -14.712988 21.200639 
394 33 1 -16.093860 -14.667925 21.945347 
395 33 1 -15.427992 -14.622861 22.690054 
396 33 1 -14.762125 -14.577798 23.434762 
397 34 1 6.322144 -25.000001 17.415157 
398 34 1 5.371801 -24.689142 17.429835 
399 34 1 4.421459 -24.378284 17.444514 
400 34 1 3.471116 -24.067425 17.459192 
401 34 1 2.520773 -23.756566 17.473871 
402 34 1 1.570430 -23.445707 17.488549 
403 34 1 0.620088 -23.134848 17.503227 
404 34 1 -0.330255 -22.823989 17.517906 
405 34 1 -1.280598 -22.513131 17.532584 
406 34 1 -2.230941 -22.202272 17.547263 
407 34 1 -3.181283 -21.891413 17.561941 
408 34 1 -4.131626 -21.580554 17.576620 
409 35 1 21.578869 -13.221776 -17.933063 
410 35 1 21.889615 -12.279137 -18.055002 
411 35 1 22.200361 -11.336499 -18.176941 
412 35 1 22.511107 -10.393860 -18.298881 
413 35 1 22.821853 -9.451221 -18.420820 
414 35 1 23.132599 -8.508583 -18.542759 
415 35 1 23.443346 -7.565944 -18.664698 
416 35 1 23.754092 -6.623305 -18.786637 
417 35 1 24.064838 -5.680666 -18.908576 
418 35 1 24.375584 -4.738028 -19.030515 
419 35 1 24.686330 -3.795389 -19.152454 
420 35 1 24.997076 -2.852750 -19.274393 
421 36 1 -8.183422 -18.932515 22.629157 
422 36 1 -7.542669 -18.345074 22.134840 
423 36 1 -6.901916 -17.757634 21.640523 
424 36 1 -6.261163 -17.170193 21.146207 
425 36 1 -5.620410 -16.582752 20.651890 
426 36 1 -4.979658 -15.995311 20.157573 
427 36 1 -4.338905 -15.407871 19.663256 
428 36 1 -3.698152 -14.820430 19.168939 
429 36 1 -3.057399 -14.232989 18.674622 
430 36 1 -2.416646 -13.645548 18.180306 
431 36 1 -1.775893 -13.058107 17.685989 
432 36 1 -1.135141 -12.470667 17.191672 
433 37 1 19.797423 -5.327815 -12.151338 
434 37 1 19.618142 -4.370138 -12.376534 
435 37 1 19.438861 -3.412461 -12.601731 
436 37 1 19.259581 -2.454784 -12.826927 
437 37 1 19.080300 -1.497107 -13.052124 
438 37 1 18.901019 -0.539430 -13.277320 
439 37 1 18.721739 0.418247 -13.502517 
440 37 1 18.542458 1.375923 -13.727713 
441 37 1 18.363177 2.333600 -13.952910 
442 37 1 18.183897 3.291277 -14.178106 
443 37 1 18.004616 4.248954 -14.403303 
444 37 1 17.825336 5.206631 -14.628499 
445 38 1 14.587663 -5.012206 10.947980 
446 38 1 14.654654 -5.630075 11.731403 
447 38 1 14.721645 -6.247944 12.514825 
448 38 1 14.788635 -6.865813 13.298247 
449 38 1 14.855626 -7.483681 14.081669 
450 38 1 14.922617 -8.101550 14.865091 
451 38 1 14.989607 -8.719419 15.648513 
452 38 1 15.056598 -9.337288 16.431936 
453 38 1 15.123589 -9.955157 17.215358 
454 38 1 15.190579 -10.573026 17.998780 
455 38 1 15.257570 -11.190895 18.782202 
456 38 1 15.324561 -11.808764 19.565624 
457 39 1 -22.555051 -22.612963 5.959035 
458 39 1 -22.212283 -22.766191 5.032196 
459 39 1 -21.869516 -22.919419 4.105356 
460 39 1 -21.526748 -23.072648 3.178517 
461 39 1 -21.183980 -23.225876 2.251677 
462 39 1 -20.841212 -23.379104 1.324838 
463 39 1 -20.498444 -23.532332 0.397998 
464 39 1 -20.155676 -23.685560 -0.528841 
465 39 1 -19.812908 -23.838788 -1.455680 
466 39 1 -19.470141 -23.992016 -2.382520 
467 39 1 -19.127373 -24.145244 -3.309359 
468 39 1 -18.784605 -24.298473 -4.236199 
469 40 1 2.404570 2.669972 -15.026751 
470 40 1 2.678883 3.437977 -15.605475 
471 40 1 2.953196 4.205982 -16.184198 
472 40 1 3.227509 4.973987 -16.762921 
473 40 1 3.501822 5.741992 -17.341644 
474 40 1 3.776135 6.509998 -17.920367 
475 40 1 4.050448 7.278003 -18.499090 
476 40 1 4.324761 8.046008 -19.077814 
477 40 1 4.599073 8.814013 -19.656537 
478 40 1 4.873386 9.582018 -20.235260 
479 40 1 5.147699 10.350023 -20.813983 
480 40 1 5.422012 11.118029 -21.392706 
481 41 1 -23.929832 21.625713 23.211240 
482 41 1 -23.088102 21.387473 22.726748 
483 41 1 -22.246372 21.149232 22.242256 
484 41 1 -21.404642 20.910992 21.757765 
485 41 1 -20.562912 20.672751 21.273273 
486 41 1 -19.721182 20.434511 20.788781 
487 41 1 -18.879452 20.196270 20.304290 
488 41 1 -18.037722 19.958030 19.819798 
489 41 1 -17.195992 19.719790 19.335306 
490 41 1 -16.354262 19.481549 18.850815 
491 41 1 -15.512532 19.243309 18.366323 
492 41 1 -14.670802 19.005068 17.881831 
493 42 1 11.921529 16.514754 -5.368197 
494 42 1 11.326035 15.713523 -5.309748 
495 42 1 10.730542 14.912292 -5.251299 
496 42 1 10.135048 14.111061 -5.192850 
497 42 1 9.539554 13.309830 -5.134401 
498 42 1 8.944061 12.508599 -5.075952 
499 42 1 8.348567 11.707368 -5.017503 
500 42 1 7.753073 10.906137 -4.959054 
501 42 1 7.157580 10.104906 -4.900604 
502 42 1 6.562086 9.303675 -4.842155 
503 42 1 5.966592 8.502444 -4.783706 
504 42 1 5.371099 7.701214 -4.725257 
505 43 1 -18.132207 -0.875926 -8.736353 
506 43 1 -18.049966 -1.218393 -9.672277 
507 43 1 -17.967725 -1.560859 -10.608200 
508 43 1 -17.885484 -1.903326 -11.544124 
509 43 1 -17.803244 -2.245792 -12.480048 
510 43 1 -17.721003 -2.588259 -13.415971 
511 43 1 -17.638762 -2.930726 -14.351895 
512 43 1 -17.556521 -3.273192 -15.287819 
513 43 1 -17.474281 -3.615659 -16.223742 
514 43 1 -17.392040 -3.958125 -17.159666 
515 43 1 -17.309799 -4.300592 -18.095590 
516 43 1 -17.227558 -4.643058 -19.031513 
517 44 1 -19.249546 0.179344 5.745825 
518 44 1 -18.939763 1.010668 5.284376 
519 44 1 -18.629979 1.841992 4.822928 
520 44 1 -18.320195 2.673315 4.361479 
521 44 1 -18.010411 3.504639 3.900030 
522 44 1 -17.700627 4.335963 3.438582 
523 44 1 -17.390843 5.167287 2.977133 
524 44 1 -17.081059 5.998610 2.515685 
525 44 1 -16.771275 6.829934 2.054236 
526 44 1 -16.461491 7.661258 1.592787 
527 44 1 -16.151708 8.492582 1.131339 
528 44 1 -15.841924 9.323905 0.669890 
529 45 1 -24.190389 -4.153082 14.572263 
530 45 1 -23.937512 -4.212488 13.606590 
531 45 1 -23.684636 -4.271894 12.640917 
532 45 1 -23.431759 -4.331300 11.675244 
533 45 1 -23.178882 -4.390705 10.709571 
534 45 1 -22.926005 -4.450111 9.743898 
535 45 1 -22.673129 -4.509517 8.778225 
536 45 1 -22.420252 -4.568923 7.812552 
537 45 1 -22.167375 -4.628328 6.846879 
538 45 1 -21.914498 -4.687734 5.881206 
539 45 1 -21.661622 -4.747140 4.915533 
540 45 1 -21.408745 -4.806546 3.949860 
541 46 1 18.752408 15.739845 -17.041164 
542 46 1 17.768330 15.583504 -17.125711 
543 46 1 16.784252 15.427163 -17.210258 
544 46 1 15.800174 15.270822 -17.294805 
545 46 1 14.816096 15.114481 -17.379353 
546 46 1 13.832018 14.958140 -17.463900 
547 46 1 12.847940 14.801799 -17.548447 
548 46 1 11.863862 14.645458 -17.632994 
549 46 1 10.879785 14.489117 -17.717541 
550 46 1 9.895707 14.332775 -17.802088 
551 46 1 8.911629 14.176434 -17.886635 
552 46 1 7.927551 14.020093 -17.971182 
553 47 1 1.843761 -14.067869 -8.319277 
554 47 1 1.107943 -14.662582 -7.995412 
555 47 1 0.372125 -15.257295 -7.671547 
556 47 1 -0.363692 -15.852008 -7.347682 
557 47 1 -1.099510 -16.446721 -7.023816 
558 47 1 -1.835328 -17.041434 -6.699951 
559 47 1 -2.571146 -17.636147 -6.376086 
560 47 1 -3.306963 -18.230860 -6.052220 
561 47 1 -4.042781 -18.825573 -5.728355 
562 47 1 -4.778599 -19.420286 -5.404490 
563 47 1 -5.514417 -20.014999 -5.080625 
564 47 1 -6.250234 -20.609712 -4.756759 
565 48 1 -3.788268 18.341701 6.757438 
566 48 1 -4.014329 17.476312 7.204650 
567 48 1 -4.240389 16.610923 7.651862 
568 48 1 -4.466449 15.745534 8.099074 
569 48 1 -4.692510 14.880145 8.546286 
570 48 1 -4.918570 14.014756 8.993498 
571 48 1 -5.144630 13.149367 9.440710 
572 48 1 -5.370691 12.283978 9.887922 
573 48 1 -5.596751 11.418589 10.335134 
574 48 1 -5.822811 10.553200 10.782346 
575 48 1 -6.048872 9.687811 11.229558 
576 48 1 -6.274932 8.822422 11.676770 
577 49 1 -15.575395 4.819910 -12.764417 
578 49 1 -15.243125 5.756517 -12.875613 
579 49 1 -14.910855 6.693124 -12.986810 
580 49 1 -14.578586 7.629731 -13.098006 
581 49 1 -14.246316 8.566337 -13.209203 
582 49 1 -13.914047 9.502944 -13.320400 
583 49 1 -13.581777 10.439551 -13.431596 
584 49 1 -13.249507 11.376158 -13.542793 
585 49 1 -12.917238 12.312764 -13.653989 
586 49 1 -12.584968 13.249371 -13.765186 
587 49 1 -12.252698 14.185978 -13.876382 
588 49 1 -11.920429 15.122585 -13.987579 
589 50 1 -7.568235 17.076690 3.375642 
590 50 1 -8.414420 17.596349 3.493652 
591 50 1 -9.260604 18.116008 3.611663 
592 50 1 -10.106788 18.635668 3.729673 
593 50 1 -10.952972 19.155327 3.847684 
594 50 1 -11.799157 19.674986 3.965694 
595 50 1 -12.645341 20.194645 4.083705 
596 50 1 -13.491525 20.714304 4.201715 
597 50 1 -14.337710 21.233963 4.319726 
598 50 1 -15.183894 21.753623 4.437736 
599 50 1 -16.030078 22.273282 4.555746 
600 50 1 -16.876263 22.792941 4.673757 
601 51 1 -14.914124 -2.312514 20.410690 
602 51 1 -14.978521 -1.517233 19.807879 
603 51 1 -15.042917 -0.721952 19.205068 
604 51 1 -15.107313 0.073330 18.602257 
605 51 1 -15.171710 0.868611 17.999446 
606 51 1 -15.236106 1.663892 17.396635 
607 51 1 -15.300502 2.459173 16.793824 
608 51 1 -15.364899 3.254454 16.191013 
609 51 1 -15.429295 4.049735 15.588202 
610 51 1 -15.493691 4.845016 14.985391 
611 51 1 -15.558088 5.640297 14.382580 
612 51 1 -15.622484 6.435578 13.779769 
613 52 1 -5.185881 1.051302 11.407153 
614 52 1 -5.156435 1.869221 11.981733 
615 52 1 -5.126990 2.687140 12.556312 
616 52 1 -5.097544 3.505059 13.130891 
617 52 1 -5.068099 4.322978 13.705471 
618 52 1 -5.038653 5.140897 14.280050 
619 52 1 -5.009207 5.958816 14.854630 
620 52 1 -4.979762 6.776735 15.429209 
621 52 1 -4.950316 7.594654 16.003788 
622 52 1 -4.920871 8.412573 16.578368 
623 52 1 -4.891425 9.230492 17.152947 
624 52 1 -4.861980 10.048411 17.727527 
625 53 1 -4.712145 12.408424 20.160585 
626 53 1 -4.328023 13.331651 20.150468 
627 53 1 -3.943901 14.254878 20.140350 
628 53 1 -3.559779 15.178105 20.130233 
629 53 1 -3.175657 16.101332 20.120115 
630 53 1 -2.791535 17.024559 20.109998 
631 53 1 -2.407414 17.947786 20.099880 
632 53 1 -2.023292 18.871013 20.089762 
633 53 1 -1.639170 19.794240 20.079645 
634 53 1 -1.255048 20.717467 20.069527 
635 53 1 -0.870926 21.640694 20.059410 
636 53 1 -0.486804 22.563921 20.049292 
637 54 1 1.369171 -18.871661 22.092113 
638 54 1 1.565049 -19.404464 21.268855 
639 54 1 1.760926 -19.937266 20.445597 
640 54 1 1.956803 -20.470069 19.622339 
641 54 1 2.152680 -21.002872 18.799082 
642 54 1 2.348557 -21.535675 17.975824 
643 54 1 2.544434 -22.068478 17.152566 
644 54 1 2.740311 -22.601280 16.329308 
645 54 1 2.936188 -23.134083 15.506051 
646 54 1 3.132065 -23.666886 14.682793 
647 54 1 3.327943 -24.199689 13.859535 
648 54 1 3.523820 -24.732492 13.036277 
649 55 1 1.377878 -3.537918 -17.979184 
650 55 1 1.964488 -4.326196 -17.793428 
651 55 1 2.551098 -5.114475 -17.607672 
652 55 1 3.137708 -5.902754 -17.421916 
653 55 1 3.724318 -6.691032 -17.236160 
654 55 1 4.310928 -7.479311 -17.050404 
655 55 1 4.897538 -8.267590 -16.864648 
656 55 1 5.484149 -9.055868 -16.678892 
657 55 1 6.070759 -9.844147 -16.493136 
658 55 1 6.657369 -10.632426 -16.307380 
659 55 1 7.243979 -11.420704 -16.121624 
660 55 1 7.830589 -12.208983 -15.935868 
661 56 1 -2.480662 3.818231 20.231281 
662 56 1 -2.065034 3.224922 19.541907 
663 56 1 -1.649406 2.631612 18.852532 
664 56 1 -1.233777 2.038303 18.163158 
665 56 1 -0.818149 1.444993 17.473783 
666 56 1 -0.402521 0.851684 16.784409 
667 56 1 0.013107 0.258375 16.095034 
668 56 1 0.428735 -0.334935 15.405660 
669 56 1 0.844363 -0.928244 14.716285 
670 56 1 1.259991 -1.521554 14.026911 
671 56 1 1.675619 -2.114863 13.337537 
672 56 1 2.091247 -2.708173 12.648162 
673 57 1 -12.209256 14.134622 13.290519 
674 57 1 -11.478783 14.814620 13.227181 
675 57 1 -10.748310 15.494618 13.163844 
676 57 1 -10.017837 16.174616 13.100507 
677 57 1 -9.287364 16.854615 13.037169 
678 57 1 -8.556891 17.534613 12.973832 
679 57 1 -7.826418 18.214611 12.910495 
680 57 1 -7.095945 18.894609 12.847157 
681 57 1 -6.365472 19.574608 12.783820 
682 57 1 -5.634999 20.254606 12.720482 
683 57 1 -4.904526 20.934604 12.657145 
684 57 1 -4.174053 21.614602 12.593808 
685 58 1 12.366533 -18.983155 21.910264 
686 58 1 12.367970 -17.996635 22.073899 
687 58 1 12.369408 -17.010115 22.237535 
688 58 1 12.370846 -16.023595 22.401170 
689 58 1 12.372284 -15.037075 22.564805 
690 58 1 12.373722 -14.050556 22.728440 
691 58 1 12.375160 -13.064036 22.892075 
692 58 1 12.376598 -12.077516 23.055710 
693 58 1 12.378035 -11.090996 23.219346 
694 58 1 12.379473 -10.104476 23.382981 
695 58 1 12.380911 -9.117956 23.546616 
696 58 1 12.382349 -8.131436 23.710251 
697 59 1 11.468348 -5.221023 13.322907 
698 59 1 11.690255 -5.465449 12.378972 
699 59 1 11.912161 -5.709875 11.435037 
700 59 1 12.134068 -5.954301 10.491102 
701 59 1 12.355974 -6.198727 9.547167 
702 59 1 12.577881 -6.443153 8.603232 
703 59 1 12.799788 -6.687579 7.659297 
704 59 1 13.021694 -6.932005 6.715362 
705 59 1 13.243601 -7.176432 5.771427 
706 59 1 13.465507 -7.420858 4.827491 
707 59 1 13.687414 -7.665284 3.883556 
708 59 1 13.909321 -7.909710 2.939621 
709 60 1 3.139876 -5.357775 -10.511841 
710 60 1 2.903382 -5.298048 -9.542045 
711 60 1 2.666888 -5.238321 -8.572250 
712 60 1 2.430395 -5.178594 -7.602454 
713 60 1 2.193901 -5.118867 -6.632659 
714 60 1 1.957407 -5.059139 -5.662863 
715 60 1 1.720913 -4.999412 -4.693067 
716 60 1 1.484420 -4.939685 -3.723272 
717 60 1 1.247926 -4.879958 -2.753476 
718 60 1 1.011432 -4.820231 -1.783681 
719 60 1 0.774938 -4.760504 -0.813885 
720 60 1 0.538445 -4.700777 0.155910 
721 61 1 -15.168554 2.256484 7.819842 
722 61 1 -15.810337 2.644492 8.481330 
723 61 1 -16.452120 3.032499 9.142817 
724 61 1 -17.093902 3.420506 9.804304 
725 61 1 -17.735685 3.808513 10.465791 
726 61 1 -18.377468 4.196521 11.127278 
727 61 1 -19.019251 4.584528 11.788765 
728 61 1 -19.661034 4.972535 12.450252 
729 61 1 -20.302816 5.360543 13.111739 
730 61 1 -20.944599 5.748550 13.773227 
731 61 1 -21.586382 6.136557 14.434714 
732 61 1 -22.228165 6.524564 15.096201 
733 62 1 -0.620228 -3.956682 -21.883548 
734 62 1 -0.540267 -2.966223 -21.995787 
735 62 1 -0.460306 -1.975765 -22.108026 
736 62 1 -0.380345 -0.985306 -22.220266 
737 62 1 -0.300384 0.005153 -22.332505 
738 62 1 -0.220423 0.995612 -22.444744 
739 62 1 -0.140463 1.986071 -22.556983 
740 62 1 -0.060502 2.976530 -22.669222 
741 62 1 0.019459 3.966988 -22.781461 
742 62 1 0.099420 4.957447 -22.893700 
743 62 1 0.179381 5.947906 -23.005939 
744 62 1 0.259342 6.938365 -23.118178 
745 63 1 8.031892 -1.451939 -23.158786 
746 63 1 8.098380 -2.418394 -22.910705 
747 63 1 8.164868 -3.384849 -22.662624 
748 63 1 8.231356 -4.351304 -22.414543 
749 63 1 8.297844 -5.317759 -22.166462 