# LAMMPS Data File

8000 atoms
7600 bonds
1 atom types
1 bond types

-27.5 27.5 xlo xhi
-27.5 27.5 ylo yhi
-27.5 27.5 zlo zhi

Masses

1 1.00

Atoms

1 1 1 12.928177 2.825674 -19.478393 
2 1 1 12.494223 3.570006 -18.970797 
3 1 1 12.060269 4.314338 -18.463201 
4 1 1 11.626315 5.058670 -17.955605 
5 1 1 11.192361 5.803002 -17.448008 
6 1 1 10.758407 6.547334 -16.940412 
7 1 1 10.324453 7.291666 -16.432816 
8 1 1 9.890499 8.035997 -15.925219 
9 1 1 9.456545 8.780329 -15.417623 
10 1 1 9.022591 9.524661 -14.910027 
11 1 1 8.588637 10.268993 -14.402430 
12 1 1 8.154683 11.013325 -13.894834 
13 1 1 7.720729 11.757657 -13.387238 
14 1 1 7.286775 12.501988 -12.879642 
15 1 1 6.852821 13.246320 -12.372045 
16 1 1 6.418867 13.990652 -11.864449 
17 1 1 5.984913 14.734984 -11.356853 
18 1 1 5.550959 15.479316 -10.849256 
19 1 1 5.117004 16.223648 -10.341660 
20 1 1 4.683050 16.967980 -9.834064 
21 2 1 -20.451744 4.305178 -3.814334 
22 2 1 -19.926892 4.668130 -3.044402 
23 2 1 -19.402040 5.031083 -2.274470 
24 2 1 -18.877187 5.394035 -1.504537 
25 2 1 -18.352335 5.756987 -0.734605 
26 2 1 -17.827482 6.119940 0.035327 
27 2 1 -17.302630 6.482892 0.805259 
28 2 1 -16.777778 6.845845 1.575191 
29 2 1 -16.252925 7.208797 2.345123 
30 2 1 -15.728073 7.571750 3.115055 
31 2 1 -15.203220 7.934702 3.884987 
32 2 1 -14.678368 8.297655 4.654920 
33 2 1 -14.153516 8.660607 5.424852 
34 2 1 -13.628663 9.023560 6.194784 
35 2 1 -13.103811 9.386512 6.964716 
36 2 1 -12.578958 9.749465 7.734648 
37 2 1 -12.054106 10.112417 8.504580 
38 2 1 -11.529254 10.475370 9.274512 
39 2 1 -11.004401 10.838322 10.044444 
40 2 1 -10.479549 11.201274 10.814376 
41 3 1 -0.307466 -13.985582 9.947914 
42 3 1 0.038266 -13.797647 9.028594 
43 3 1 0.383997 -13.609713 8.109273 
44 3 1 0.729728 -13.421778 7.189952 
45 3 1 1.075459 -13.233844 6.270631 
46 3 1 1.421190 -13.045909 5.351311 
47 3 1 1.766921 -12.857975 4.431990 
48 3 1 2.112653 -12.670040 3.512669 
49 3 1 2.458384 -12.482106 2.593349 
50 3 1 2.804115 -12.294171 1.674028 
51 3 1 3.149846 -12.106237 0.754707 
52 3 1 3.495577 -11.918302 -0.164613 
53 3 1 3.841309 -11.730368 -1.083934 
54 3 1 4.187040 -11.542433 -2.003255 
55 3 1 4.532771 -11.354499 -2.922576 
56 3 1 4.878502 -11.166564 -3.841896 
57 3 1 5.224233 -10.978629 -4.761217 
58 3 1 5.569965 -10.790695 -5.680538 
59 3 1 5.915696 -10.602760 -6.599858 
60 3 1 6.261427 -10.414826 -7.519179 
61 4 1 22.970739 17.422503 11.348735 
62 4 1 22.450310 16.568625 11.355472 
63 4 1 21.929881 15.714747 11.362209 
64 4 1 21.409452 14.860868 11.368947 
65 4 1 20.889023 14.006990 11.375684 
66 4 1 20.368594 13.153111 11.382422 
67 4 1 19.848165 12.299233 11.389159 
68 4 1 19.327736 11.445354 11.395896 
69 4 1 18.807307 10.591476 11.402634 
70 4 1 18.286878 9.737598 11.409371 
71 4 1 17.766449 8.883719 11.416109 
72 4 1 17.246020 8.029841 11.422846 
73 4 1 16.725592 7.175962 11.429583 
74 4 1 16.205163 6.322084 11.436321 
75 4 1 15.684734 5.468206 11.443058 
76 4 1 15.164305 4.614327 11.449795 
77 4 1 14.643876 3.760449 11.456533 
78 4 1 14.123447 2.906570 11.463270 
79 4 1 13.603018 2.052692 11.470008 
80 4 1 13.082589 1.198814 11.476745 
81 5 1 15.664613 21.071362 -16.718946 
82 5 1 14.859603 20.601245 -17.080813 
83 5 1 14.054592 20.131128 -17.442681 
84 5 1 13.249582 19.661011 -17.804549 
85 5 1 12.444571 19.190894 -18.166416 
86 5 1 11.639561 18.720777 -18.528284 
87 5 1 10.834550 18.250661 -18.890152 
88 5 1 10.029539 17.780544 -19.252019 
89 5 1 9.224529 17.310427 -19.613887 
90 5 1 8.419518 16.840310 -19.975754 
91 5 1 7.614508 16.370193 -20.337622 
92 5 1 6.809497 15.900076 -20.699490 
93 5 1 6.004487 15.429960 -21.061357 
94 5 1 5.199476 14.959843 -21.423225 
95 5 1 4.394466 14.489726 -21.785093 
96 5 1 3.589455 14.019609 -22.146960 
97 5 1 2.784445 13.549492 -22.508828 
98 5 1 1.979434 13.079375 -22.870696 
99 5 1 1.174424 12.609258 -23.232563 
100 5 1 0.369413 12.139142 -23.594431 
101 6 1 -7.524623 -17.120360 -9.951230 
102 6 1 -6.663150 -16.710984 -10.251689 
103 6 1 -5.801678 -16.301608 -10.552149 
104 6 1 -4.940205 -15.892231 -10.852608 
105 6 1 -4.078732 -15.482855 -11.153067 
106 6 1 -3.217260 -15.073479 -11.453527 
107 6 1 -2.355787 -14.664103 -11.753986 
108 6 1 -1.494314 -14.254726 -12.054445 
109 6 1 -0.632841 -13.845350 -12.354905 
110 6 1 0.228631 -13.435974 -12.655364 
111 6 1 1.090104 -13.026597 -12.955824 
112 6 1 1.951577 -12.617221 -13.256283 
113 6 1 2.813049 -12.207845 -13.556742 
114 6 1 3.674522 -11.798469 -13.857202 
115 6 1 4.535995 -11.389092 -14.157661 
116 6 1 5.397467 -10.979716 -14.458120 
117 6 1 6.258940 -10.570340 -14.758580 
118 6 1 7.120413 -10.160964 -15.059039 
119 6 1 7.981886 -9.751587 -15.359499 
120 6 1 8.843358 -9.342211 -15.659958 
121 7 1 11.085827 -20.981773 -2.275863 
122 7 1 10.879469 -20.003325 -2.268389 
123 7 1 10.673110 -19.024877 -2.260914 
124 7 1 10.466752 -18.046429 -2.253440 
125 7 1 10.260394 -17.067981 -2.245966 
126 7 1 10.054035 -16.089533 -2.238491 
127 7 1 9.847677 -15.111085 -2.231017 
128 7 1 9.641319 -14.132637 -2.223542 
129 7 1 9.434961 -13.154189 -2.216068 
130 7 1 9.228602 -12.175741 -2.208594 
131 7 1 9.022244 -11.197293 -2.201119 
132 7 1 8.815886 -10.218845 -2.193645 
133 7 1 8.609527 -9.240397 -2.186171 
134 7 1 8.403169 -8.261949 -2.178696 
135 7 1 8.196811 -7.283501 -2.171222 
136 7 1 7.990452 -6.305053 -2.163747 
137 7 1 7.784094 -5.326605 -2.156273 
138 7 1 7.577736 -4.348157 -2.148799 
139 7 1 7.371377 -3.369710 -2.141324 
140 7 1 7.165019 -2.391262 -2.133850 
141 8 1 18.862456 14.542590 11.711119 
142 8 1 18.972558 13.667098 11.240597 
143 8 1 19.082660 12.791606 10.770074 
144 8 1 19.192761 11.916114 10.299552 
145 8 1 19.302863 11.040622 9.829029 
146 8 1 19.412965 10.165131 9.358506 
147 8 1 19.523067 9.289639 8.887984 
148 8 1 19.633169 8.414147 8.417461 
149 8 1 19.743270 7.538655 7.946939 
150 8 1 19.853372 6.663163 7.476416 
151 8 1 19.963474 5.787671 7.005894 
152 8 1 20.073576 4.912179 6.535371 
153 8 1 20.183678 4.036687 6.064849 
154 8 1 20.293779 3.161195 5.594326 
155 8 1 20.403881 2.285703 5.123804 
156 8 1 20.513983 1.410211 4.653281 
157 8 1 20.624085 0.534719 4.182759 
158 8 1 20.734186 -0.340773 3.712236 
159 8 1 20.844288 -1.216265 3.241713 
160 8 1 20.954390 -2.091757 2.771191 
161 9 1 -3.475614 -0.250406 8.282706 
162 9 1 -4.340230 0.077377 7.901922 
163 9 1 -5.204847 0.405161 7.521138 
164 9 1 -6.069463 0.732944 7.140354 
165 9 1 -6.934079 1.060728 6.759570 
166 9 1 -7.798696 1.388512 6.378786 
167 9 1 -8.663312 1.716295 5.998002 
168 9 1 -9.527928 2.044079 5.617218 
169 9 1 -10.392545 2.371863 5.236434 
170 9 1 -11.257161 2.699646 4.855650 
171 9 1 -12.121777 3.027430 4.474866 
172 9 1 -12.986394 3.355213 4.094082 
173 9 1 -13.851010 3.682997 3.713298 
174 9 1 -14.715626 4.010781 3.332514 
175 9 1 -15.580243 4.338564 2.951730 
176 9 1 -16.444859 4.666348 2.570945 
177 9 1 -17.309475 4.994132 2.190161 
178 9 1 -18.174092 5.321915 1.809377 
179 9 1 -19.038708 5.649699 1.428593 
180 9 1 -19.903324 5.977482 1.047809 
181 10 1 25.000079 16.099046 -9.137919 
182 10 1 24.499441 15.561094 -8.459708 
183 10 1 23.998803 15.023143 -7.781497 
184 10 1 23.498165 14.485191 -7.103286 
185 10 1 22.997527 13.947240 -6.425076 
186 10 1 22.496889 13.409288 -5.746865 
187 10 1 21.996251 12.871336 -5.068654 
188 10 1 21.495613 12.333385 -4.390444 
189 10 1 20.994976 11.795433 -3.712233 
190 10 1 20.494338 11.257481 -3.034022 
191 10 1 19.993700 10.719530 -2.355811 
192 10 1 19.493062 10.181578 -1.677601 
193 10 1 18.992424 9.643627 -0.999390 
194 10 1 18.491786 9.105675 -0.321179 
195 10 1 17.991148 8.567723 0.357031 
196 10 1 17.490510 8.029772 1.035242 
197 10 1 16.989873 7.491820 1.713453 
198 10 1 16.489235 6.953868 2.391663 
199 10 1 15.988597 6.415917 3.069874 
200 10 1 15.487959 5.877965 3.748085 
201 11 1 -21.340597 5.703255 -15.897715 
202 11 1 -21.116129 5.076674 -15.151384 
203 11 1 -20.891661 4.450092 -14.405053 
204 11 1 -20.667192 3.823511 -13.658722 
205 11 1 -20.442724 3.196930 -12.912391 
206 11 1 -20.218256 2.570349 -12.166060 
207 11 1 -19.993787 1.943768 -11.419729 
208 11 1 -19.769319 1.317187 -10.673398 
209 11 1 -19.544851 0.690606 -9.927067 
210 11 1 -19.320383 0.064025 -9.180736 
211 11 1 -19.095914 -0.562556 -8.434404 
212 11 1 -18.871446 -1.189138 -7.688073 
213 11 1 -18.646978 -1.815719 -6.941742 
214 11 1 -18.422509 -2.442300 -6.195411 
215 11 1 -18.198041 -3.068881 -5.449080 
216 11 1 -17.973573 -3.695462 -4.702749 
217 11 1 -17.749104 -4.322043 -3.956418 
218 11 1 -17.524636 -4.948624 -3.210087 
219 11 1 -17.300168 -5.575205 -2.463756 
220 11 1 -17.075699 -6.201787 -1.717425 
221 12 1 14.196730 -21.008850 -24.024278 
222 12 1 14.491753 -20.693264 -23.122409 
223 12 1 14.786776 -20.377679 -22.220540 
224 12 1 15.081799 -20.062093 -21.318672 
225 12 1 15.376822 -19.746508 -20.416803 
226 12 1 15.671845 -19.430922 -19.514934 
227 12 1 15.966869 -19.115337 -18.613066 
228 12 1 16.261892 -18.799751 -17.711197 
229 12 1 16.556915 -18.484165 -16.809328 
230 12 1 16.851938 -18.168580 -15.907460 
231 12 1 17.146961 -17.852994 -15.005591 
232 12 1 17.441984 -17.537409 -14.103722 
233 12 1 17.737007 -17.221823 -13.201854 
234 12 1 18.032031 -16.906238 -12.299985 
235 12 1 18.327054 -16.590652 -11.398116 
236 12 1 18.622077 -16.275067 -10.496248 
237 12 1 18.917100 -15.959481 -9.594379 
238 12 1 19.212123 -15.643895 -8.692510 
239 12 1 19.507146 -15.328310 -7.790642 
240 12 1 19.802169 -15.012724 -6.888773 
241 13 1 16.319644 -0.506031 -3.367677 
242 13 1 15.342469 -0.300433 -3.314224 
243 13 1 14.365293 -0.094835 -3.260770 
244 13 1 13.388118 0.110764 -3.207317 
245 13 1 12.410942 0.316362 -3.153863 
246 13 1 11.433767 0.521960 -3.100410 
247 13 1 10.456591 0.727559 -3.046956 
248 13 1 9.479416 0.933157 -2.993503 
249 13 1 8.502240 1.138756 -2.940050 
250 13 1 7.525065 1.344354 -2.886596 
251 13 1 6.547889 1.549952 -2.833143 
252 13 1 5.570714 1.755551 -2.779689 
253 13 1 4.593538 1.961149 -2.726236 
254 13 1 3.616362 2.166748 -2.672782 
255 13 1 2.639187 2.372346 -2.619329 
256 13 1 1.662011 2.577944 -2.565875 
257 13 1 0.684836 2.783543 -2.512422 
258 13 1 -0.292340 2.989141 -2.458968 
259 13 1 -1.269515 3.194740 -2.405515 
260 13 1 -2.246691 3.400338 -2.352061 
261 14 1 16.633177 -3.729353 -1.744389 
262 14 1 15.825178 -3.827536 -1.163443 
263 14 1 15.017180 -3.925720 -0.582497 
264 14 1 14.209181 -4.023903 -0.001551 
265 14 1 13.401183 -4.122087 0.579395 
266 14 1 12.593184 -4.220270 1.160341 
267 14 1 11.785185 -4.318454 1.741287 
268 14 1 10.977187 -4.416637 2.322233 
269 14 1 10.169188 -4.514821 2.903179 
270 14 1 9.361190 -4.613004 3.484126 
271 14 1 8.553191 -4.711187 4.065072 
272 14 1 7.745193 -4.809371 4.646018 
273 14 1 6.937194 -4.907554 5.226964 
274 14 1 6.129196 -5.005738 5.807910 
275 14 1 5.321197 -5.103921 6.388856 
276 14 1 4.513199 -5.202105 6.969802 
277 14 1 3.705200 -5.300288 7.550748 
278 14 1 2.897202 -5.398472 8.131694 
279 14 1 2.089203 -5.496655 8.712640 
280 14 1 1.281205 -5.594839 9.293587 
281 15 1 -10.910910 -12.786487 9.292833 
282 15 1 -10.408323 -12.456013 10.091703 
283 15 1 -9.905736 -12.125538 10.890573 
284 15 1 -9.403149 -11.795064 11.689443 
285 15 1 -8.900562 -11.464589 12.488312 
286 15 1 -8.397975 -11.134114 13.287182 
287 15 1 -7.895388 -10.803640 14.086052 
288 15 1 -7.392801 -10.473165 14.884922 
289 15 1 -6.890214 -10.142691 15.683791 
290 15 1 -6.387627 -9.812216 16.482661 
291 15 1 -5.885040 -9.481742 17.281531 
292 15 1 -5.382453 -9.151267 18.080401 
293 15 1 -4.879866 -8.820793 18.879270 
294 15 1 -4.377279 -8.490318 19.678140 
295 15 1 -3.874692 -8.159844 20.477010 
296 15 1 -3.372105 -7.829369 21.275880 
297 15 1 -2.869518 -7.498895 22.074749 
298 15 1 -2.366931 -7.168420 22.873619 
299 15 1 -1.864344 -6.837946 23.672489 
300 15 1 -1.361757 -6.507471 24.471359 
301 16 1 -3.223830 -2.596237 -18.096957 
302 16 1 -3.255883 -1.639249 -17.808605 
303 16 1 -3.287936 -0.682261 -17.520253 
304 16 1 -3.319989 0.274727 -17.231902 
305 16 1 -3.352042 1.231715 -16.943550 
306 16 1 -3.384095 2.188703 -16.655198 
307 16 1 -3.416149 3.145691 -16.366847 
308 16 1 -3.448202 4.102679 -16.078495 
309 16 1 -3.480255 5.059667 -15.790143 
310 16 1 -3.512308 6.016655 -15.501792 
311 16 1 -3.544361 6.973643 -15.213440 
312 16 1 -3.576415 7.930630 -14.925088 
313 16 1 -3.608468 8.887618 -14.636737 
314 16 1 -3.640521 9.844606 -14.348385 
315 16 1 -3.672574 10.801594 -14.060033 
316 16 1 -3.704627 11.758582 -13.771682 
317 16 1 -3.736680 12.715570 -13.483330 
318 16 1 -3.768734 13.672558 -13.194978 
319 16 1 -3.800787 14.629546 -12.906627 
320 16 1 -3.832840 15.586534 -12.618275 
321 17 1 -4.832593 7.685247 -1.888553 
322 17 1 -5.367299 7.590201 -2.728229 
323 17 1 -5.902006 7.495154 -3.567904 
324 17 1 -6.436712 7.400108 -4.407580 
325 17 1 -6.971418 7.305062 -5.247256 
326 17 1 -7.506125 7.210015 -6.086931 
327 17 1 -8.040831 7.114969 -6.926607 
328 17 1 -8.575538 7.019922 -7.766283 
329 17 1 -9.110244 6.924876 -8.605958 
330 17 1 -9.644951 6.829830 -9.445634 
331 17 1 -10.179657 6.734783 -10.285310 
332 17 1 -10.714363 6.639737 -11.124985 
333 17 1 -11.249070 6.544690 -11.964661 
334 17 1 -11.783776 6.449644 -12.804336 
335 17 1 -12.318483 6.354597 -13.644012 
336 17 1 -12.853189 6.259551 -14.483688 
337 17 1 -13.387896 6.164505 -15.323363 
338 17 1 -13.922602 6.069458 -16.163039 
339 17 1 -14.457308 5.974412 -17.002715 
340 17 1 -14.992015 5.879365 -17.842390 
341 18 1 -24.001462 -2.735370 0.530979 
342 18 1 -23.003395 -2.781724 0.572381 
343 18 1 -22.005329 -2.828078 0.613782 
344 18 1 -21.007262 -2.874432 0.655184 
345 18 1 -20.009195 -2.920787 0.696586 
346 18 1 -19.011128 -2.967141 0.737988 
347 18 1 -18.013062 -3.013495 0.779390 
348 18 1 -17.014995 -3.059849 0.820792 
349 18 1 -16.016928 -3.106203 0.862194 
350 18 1 -15.018862 -3.152557 0.903596 
351 18 1 -14.020795 -3.198912 0.944998 
352 18 1 -13.022728 -3.245266 0.986400 
353 18 1 -12.024661 -3.291620 1.027802 
354 18 1 -11.026595 -3.337974 1.069204 
355 18 1 -10.028528 -3.384328 1.110606 
356 18 1 -9.030461 -3.430683 1.152008 
357 18 1 -8.032395 -3.477037 1.193410 
358 18 1 -7.034328 -3.523391 1.234812 
359 18 1 -6.036261 -3.569745 1.276213 
360 18 1 -5.038194 -3.616099 1.317615 
361 19 1 -10.575668 16.390930 22.748021 
362 19 1 -10.213880 16.441589 21.817138 
363 19 1 -9.852091 16.492248 20.886255 
364 19 1 -9.490302 16.542907 19.955373 
365 19 1 -9.128514 16.593565 19.024490 
366 19 1 -8.766725 16.644224 18.093607 
367 19 1 -8.404936 16.694883 17.162725 
368 19 1 -8.043147 16.745542 16.231842 
369 19 1 -7.681359 16.796201 15.300959 
370 19 1 -7.319570 16.846860 14.370076 
371 19 1 -6.957781 16.897519 13.439194 
372 19 1 -6.595993 16.948178 12.508311 
373 19 1 -6.234204 16.998837 11.577428 
374 19 1 -5.872415 17.049496 10.646546 
375 19 1 -5.510627 17.100154 9.715663 
376 19 1 -5.148838 17.150813 8.784780 
377 19 1 -4.787049 17.201472 7.853897 
378 19 1 -4.425261 17.252131 6.923015 
379 19 1 -4.063472 17.302790 5.992132 
380 19 1 -3.701683 17.353449 5.061249 
381 20 1 -21.073534 -11.799877 -12.667155 
382 20 1 -20.901492 -11.101182 -11.972729 
383 20 1 -20.729450 -10.402488 -11.278303 
384 20 1 -20.557407 -9.703794 -10.583876 
385 20 1 -20.385365 -9.005100 -9.889450 
386 20 1 -20.213323 -8.306405 -9.195024 
387 20 1 -20.041281 -7.607711 -8.500598 
388 20 1 -19.869238 -6.909017 -7.806171 
389 20 1 -19.697196 -6.210322 -7.111745 
390 20 1 -19.525154 -5.511628 -6.417319 
391 20 1 -19.353111 -4.812934 -5.722893 
392 20 1 -19.181069 -4.114240 -5.028467 
393 20 1 -19.009027 -3.415545 -4.334040 
394 20 1 -18.836985 -2.716851 -3.639614 
395 20 1 -18.664942 -2.018157 -2.945188 
396 20 1 -18.492900 -1.319463 -2.250762 
397 20 1 -18.320858 -0.620768 -1.556335 
398 20 1 -18.148815 0.077926 -0.861909 
399 20 1 -17.976773 0.776620 -0.167483 
400 20 1 -17.804731 1.475314 0.526943 
401 21 1 -12.795570 -12.709927 6.141445 
402 21 1 -12.665201 -11.729119 5.996460 
403 21 1 -12.534832 -10.748312 5.851475 
404 21 1 -12.404463 -9.767504 5.706490 
405 21 1 -12.274094 -8.786697 5.561506 
406 21 1 -12.143725 -7.805889 5.416521 
407 21 1 -12.013356 -6.825082 5.271536 
408 21 1 -11.882987 -5.844274 5.126551 
409 21 1 -11.752619 -4.863467 4.981567 
410 21 1 -11.622250 -3.882659 4.836582 
411 21 1 -11.491881 -2.901851 4.691597 
412 21 1 -11.361512 -1.921044 4.546612 
413 21 1 -11.231143 -0.940236 4.401627 
414 21 1 -11.100774 0.040571 4.256643 
415 21 1 -10.970405 1.021379 4.111658 
416 21 1 -10.840036 2.002186 3.966673 
417 21 1 -10.709667 2.982994 3.821688 
418 21 1 -10.579298 3.963801 3.676704 
419 21 1 -10.448930 4.944609 3.531719 
420 21 1 -10.318561 5.925416 3.386734 
421 22 1 23.773283 19.662383 12.764368 
422 22 1 23.610410 18.695769 12.566555 
423 22 1 23.447538 17.729155 12.368742 
424 22 1 23.284665 16.762541 12.170930 
425 22 1 23.121792 15.795927 11.973117 
426 22 1 22.958919 14.829313 11.775304 
427 22 1 22.796046 13.862699 11.577491 
428 22 1 22.633173 12.896085 11.379678 
429 22 1 22.470300 11.929471 11.181865 
430 22 1 22.307427 10.962857 10.984052 
431 22 1 22.144554 9.996243 10.786239 
432 22 1 21.981681 9.029630 10.588426 
433 22 1 21.818808 8.063016 10.390614 
434 22 1 21.655936 7.096402 10.192801 
435 22 1 21.493063 6.129788 9.994988 
436 22 1 21.330190 5.163174 9.797175 
437 22 1 21.167317 4.196560 9.599362 
438 22 1 21.004444 3.229946 9.401549 
439 22 1 20.841571 2.263332 9.203736 
440 22 1 20.678698 1.296718 9.005923 
441 23 1 24.444036 9.880345 17.381936 
442 23 1 23.650561 10.386120 17.043426 
443 23 1 22.857086 10.891894 16.704916 
444 23 1 22.063610 11.397669 16.366406 
445 23 1 21.270135 11.903444 16.027896 
446 23 1 20.476660 12.409219 15.689386 
447 23 1 19.683185 12.914993 15.350876 
448 23 1 18.889710 13.420768 15.012366 
449 23 1 18.096234 13.926543 14.673856 
450 23 1 17.302759 14.432318 14.335346 
451 23 1 16.509284 14.938092 13.996836 
452 23 1 15.715809 15.443867 13.658327 
453 23 1 14.922334 15.949642 13.319817 
454 23 1 14.128858 16.455417 12.981307 
455 23 1 13.335383 16.961191 12.642797 
456 23 1 12.541908 17.466966 12.304287 
457 23 1 11.748433 17.972741 11.965777 
458 23 1 10.954958 18.478516 11.627267 
459 23 1 10.161482 18.984291 11.288757 
460 23 1 9.368007 19.490065 10.950247 
461 24 1 -13.322211 -8.446698 -7.066151 
462 24 1 -12.443341 -8.008720 -6.877045 
463 24 1 -11.564470 -7.570741 -6.687938 
464 24 1 -10.685600 -7.132762 -6.498832 
465 24 1 -9.806729 -6.694784 -6.309725 
466 24 1 -8.927858 -6.256805 -6.120619 
467 24 1 -8.048988 -5.818826 -5.931512 
468 24 1 -7.170117 -5.380848 -5.742406 
469 24 1 -6.291247 -4.942869 -5.553299 
470 24 1 -5.412376 -4.504890 -5.364193 
471 24 1 -4.533506 -4.066912 -5.175086 
472 24 1 -3.654635 -3.628933 -4.985980 
473 24 1 -2.775765 -3.190955 -4.796873 
474 24 1 -1.896894 -2.752976 -4.607767 
475 24 1 -1.018024 -2.314997 -4.418660 
476 24 1 -0.139153 -1.877019 -4.229554 
477 24 1 0.739718 -1.439040 -4.040447 
478 24 1 1.618588 -1.001061 -3.851341 
479 24 1 2.497459 -0.563083 -3.662234 
480 24 1 3.376329 -0.125104 -3.473128 
481 25 1 -20.128474 4.388569 24.999998 
482 25 1 -20.175909 5.387279 24.981920 
483 25 1 -20.223345 6.385990 24.963843 
484 25 1 -20.270781 7.384701 24.945765 
485 25 1 -20.318216 8.383411 24.927688 
486 25 1 -20.365652 9.382122 24.909610 
487 25 1 -20.413088 10.380833 24.891533 
488 25 1 -20.460523 11.379544 24.873456 
489 25 1 -20.507959 12.378254 24.855378 
490 25 1 -20.555394 13.376965 24.837301 
491 25 1 -20.602830 14.375676 24.819223 
492 25 1 -20.650266 15.374386 24.801146 
493 25 1 -20.697701 16.373097 24.783068 
494 25 1 -20.745137 17.371808 24.764991 
495 25 1 -20.792573 18.370518 24.746913 
496 25 1 -20.840008 19.369229 24.728836 
497 25 1 -20.887444 20.367940 24.710758 
498 25 1 -20.934880 21.366651 24.692681 
499 25 1 -20.982315 22.365361 24.674603 
500 25 1 -21.029751 23.364072 24.656526 
501 26 1 -12.999623 -4.926130 -2.071201 
502 26 1 -13.598114 -5.715768 -2.206409 
503 26 1 -14.196604 -6.505405 -2.341617 
504 26 1 -14.795095 -7.295043 -2.476826 
505 26 1 -15.393586 -8.084681 -2.612034 
506 26 1 -15.992076 -8.874319 -2.747242 
507 26 1 -16.590567 -9.663956 -2.882450 
508 26 1 -17.189057 -10.453594 -3.017658 
509 26 1 -17.787548 -11.243232 -3.152866 
510 26 1 -18.386039 -12.032869 -3.288074 
511 26 1 -18.984529 -12.822507 -3.423282 
512 26 1 -19.583020 -13.612145 -3.558490 
513 26 1 -20.181511 -14.401783 -3.693698 
514 26 1 -20.780001 -15.191420 -3.828907 
515 26 1 -21.378492 -15.981058 -3.964115 
516 26 1 -21.976982 -16.770696 -4.099323 
517 26 1 -22.575473 -17.560334 -4.234531 
518 26 1 -23.173964 -18.349971 -4.369739 
519 26 1 -23.772454 -19.139609 -4.504947 
520 26 1 -24.370945 -19.929247 -4.640155 
521 27 1 21.560918 10.747203 -11.482840 
522 27 1 21.417746 11.026131 -10.533261 
523 27 1 21.274574 11.305059 -9.583681 
524 27 1 21.131402 11.583987 -8.634102 
525 27 1 20.988230 11.862915 -7.684523 
526 27 1 20.845058 12.141842 -6.734943 
527 27 1 20.701886 12.420770 -5.785364 
528 27 1 20.558714 12.699698 -4.835784 
529 27 1 20.415542 12.978626 -3.886205 
530 27 1 20.272370 13.257554 -2.936626 
531 27 1 20.129198 13.536481 -1.987046 
532 27 1 19.986026 13.815409 -1.037467 
533 27 1 19.842854 14.094337 -0.087887 
534 27 1 19.699682 14.373265 0.861692 
535 27 1 19.556510 14.652192 1.811272 
536 27 1 19.413338 14.931120 2.760851 
537 27 1 19.270166 15.210048 3.710430 
538 27 1 19.126994 15.488976 4.660010 
539 27 1 18.983822 15.767904 5.609589 
540 27 1 18.840650 16.046831 6.559169 
541 28 1 20.707560 -4.487508 21.437166 
542 28 1 19.809676 -4.406574 21.004438 
543 28 1 18.911792 -4.325641 20.571709 
544 28 1 18.013908 -4.244707 20.138981 
545 28 1 17.116024 -4.163773 19.706253 
546 28 1 16.218140 -4.082840 19.273524 
547 28 1 15.320255 -4.001906 18.840796 
548 28 1 14.422371 -3.920972 18.408067 
549 28 1 13.524487 -3.840038 17.975339 
550 28 1 12.626603 -3.759105 17.542611 
551 28 1 11.728719 -3.678171 17.109882 
552 28 1 10.830835 -3.597237 16.677154 
553 28 1 9.932951 -3.516304 16.244426 
554 28 1 9.035067 -3.435370 15.811697 
555 28 1 8.137182 -3.354436 15.378969 
556 28 1 7.239298 -3.273503 14.946241 
557 28 1 6.341414 -3.192569 14.513512 
558 28 1 5.443530 -3.111635 14.080784 
559 28 1 4.545646 -3.030702 13.648056 
560 28 1 3.647762 -2.949768 13.215327 
561 29 1 21.848559 16.551614 -17.763983 
562 29 1 21.071015 16.102723 -17.323618 
563 29 1 20.293470 15.653831 -16.883253 
564 29 1 19.515926 15.204940 -16.442888 
565 29 1 18.738382 14.756049 -16.002523 
566 29 1 17.960837 14.307157 -15.562157 
567 29 1 17.183293 13.858266 -15.121792 
568 29 1 16.405749 13.409375 -14.681427 
569 29 1 15.628205 12.960484 -14.241062 
570 29 1 14.850660 12.511592 -13.800697 
571 29 1 14.073116 12.062701 -13.360332 
572 29 1 13.295572 11.613810 -12.919966 
573 29 1 12.518027 11.164918 -12.479601 
574 29 1 11.740483 10.716027 -12.039236 
575 29 1 10.962939 10.267136 -11.598871 
576 29 1 10.185394 9.818245 -11.158506 
577 29 1 9.407850 9.369353 -10.718141 
578 29 1 8.630306 8.920462 -10.277775 
579 29 1 7.852762 8.471571 -9.837410 
580 29 1 7.075217 8.022679 -9.397045 
581 30 1 -24.831977 -16.607943 -16.834854 
582 30 1 -23.901570 -16.473932 -16.493703 
583 30 1 -22.971164 -16.339920 -16.152552 
584 30 1 -22.040757 -16.205908 -15.811401 
585 30 1 -21.110350 -16.071897 -15.470250 
586 30 1 -20.179943 -15.937885 -15.129099 
587 30 1 -19.249536 -15.803874 -14.787948 
588 30 1 -18.319129 -15.669862 -14.446797 
589 30 1 -17.388723 -15.535850 -14.105646 
590 30 1 -16.458316 -15.401839 -13.764495 
591 30 1 -15.527909 -15.267827 -13.423344 
592 30 1 -14.597502 -15.133816 -13.082193 
593 30 1 -13.667095 -14.999804 -12.741042 
594 30 1 -12.736688 -14.865792 -12.399891 
595 30 1 -11.806282 -14.731781 -12.058740 
596 30 1 -10.875875 -14.597769 -11.717589 
597 30 1 -9.945468 -14.463758 -11.376438 
598 30 1 -9.015061 -14.329746 -11.035287 
599 30 1 -8.084654 -14.195734 -10.694136 
600 30 1 -7.154248 -14.061723 -10.352985 
601 31 1 9.400199 11.392900 -19.134346 
602 31 1 9.548785 11.914728 -18.294335 
603 31 1 9.697371 12.436555 -17.454325 
604 31 1 9.845957 12.958383 -16.614314 
605 31 1 9.994544 13.480210 -15.774303 
606 31 1 10.143130 14.002038 -14.934292 
607 31 1 10.291716 14.523866 -14.094281 
608 31 1 10.440302 15.045693 -13.254270 
609 31 1 10.588888 15.567521 -12.414260 
610 31 1 10.737474 16.089348 -11.574249 
611 31 1 10.886060 16.611176 -10.734238 
612 31 1 11.034646 17.133004 -9.894227 
613 31 1 11.183232 17.654831 -9.054216 
614 31 1 11.331818 18.176659 -8.214206 
615 31 1 11.480404 18.698486 -7.374195 
616 31 1 11.628990 19.220314 -6.534184 
617 31 1 11.777576 19.742142 -5.694173 
618 31 1 11.926162 20.263969 -4.854162 
619 31 1 12.074748 20.785797 -4.014152 
620 31 1 12.223334 21.307624 -3.174141 
621 32 1 2.786776 -9.371540 16.069016 
622 32 1 2.084451 -10.083194 16.085988 
623 32 1 1.382125 -10.794848 16.102959 
624 32 1 0.679800 -11.506501 16.119931 
625 32 1 -0.022525 -12.218155 16.136903 
626 32 1 -0.724851 -12.929809 16.153874 
627 32 1 -1.427176 -13.641463 16.170846 
628 32 1 -2.129501 -14.353117 16.187818 
629 32 1 -2.831826 -15.064770 16.204789 
630 32 1 -3.534152 -15.776424 16.221761 
631 32 1 -4.236477 -16.488078 16.238733 
632 32 1 -4.938802 -17.199732 16.255705 
633 32 1 -5.641128 -17.911386 16.272676 
634 32 1 -6.343453 -18.623040 16.289648 
635 32 1 -7.045778 -19.334693 16.306620 
636 32 1 -7.748103 -20.046347 16.323591 
637 32 1 -8.450429 -20.758001 16.340563 
638 32 1 -9.152754 -21.469655 16.357535 
639 32 1 -9.855079 -22.181309 16.374506 
640 32 1 -10.557405 -22.892962 16.391478 
641 33 1 5.806132 -6.951422 19.398703 
642 33 1 5.243124 -6.287462 18.906587 
643 33 1 4.680116 -5.623501 18.414470 
644 33 1 4.117108 -4.959541 17.922354 
645 33 1 3.554100 -4.295580 17.430238 
646 33 1 2.991092 -3.631619 16.938122 
647 33 1 2.428084 -2.967659 16.446005 
648 33 1 1.865076 -2.303698 15.953889 
649 33 1 1.302068 -1.639738 15.461773 
650 33 1 0.739060 -0.975777 14.969656 
651 33 1 0.176052 -0.311817 14.477540 
652 33 1 -0.386956 0.352144 13.985424 
653 33 1 -0.949964 1.016104 13.493308 
654 33 1 -1.512972 1.680065 13.001191 
655 33 1 -2.075979 2.344025 12.509075 
656 33 1 -2.638987 3.007986 12.016959 
657 33 1 -3.201995 3.671946 11.524842 
658 33 1 -3.765003 4.335907 11.032726 
659 33 1 -4.328011 4.999867 10.540610 
660 33 1 -4.891019 5.663828 10.048493 
661 34 1 -1.457115 1.245395 -6.291468 
662 34 1 -1.396556 0.254046 -6.407914 
663 34 1 -1.335997 -0.737303 -6.524361 
664 34 1 -1.275438 -1.728652 -6.640807 
665 34 1 -1.214880 -2.720001 -6.757254 
666 34 1 -1.154321 -3.711350 -6.873700 
667 34 1 -1.093762 -4.702699 -6.990147 
668 34 1 -1.033203 -5.694048 -7.106593 
669 34 1 -0.972644 -6.685397 -7.223040 
670 34 1 -0.912086 -7.676746 -7.339486 
671 34 1 -0.851527 -8.668095 -7.455933 
672 34 1 -0.790968 -9.659444 -7.572380 
673 34 1 -0.730409 -10.650793 -7.688826 
674 34 1 -0.669850 -11.642142 -7.805273 
675 34 1 -0.609291 -12.633491 -7.921719 
676 34 1 -0.548733 -13.624840 -8.038166 
677 34 1 -0.488174 -14.616189 -8.154612 
678 34 1 -0.427615 -15.607538 -8.271059 
679 34 1 -0.367056 -16.598887 -8.387505 
680 34 1 -0.306497 -17.590236 -8.503952 
681 35 1 -1.302876 -6.087207 9.364816 
682 35 1 -1.169722 -7.017162 9.022099 
683 35 1 -1.036567 -7.947116 8.679383 
684 35 1 -0.903412 -8.877071 8.336666 
685 35 1 -0.770258 -9.807025 7.993949 
686 35 1 -0.637103 -10.736979 7.651233 
687 35 1 -0.503948 -11.666934 7.308516 
688 35 1 -0.370794 -12.596888 6.965800 
689 35 1 -0.237639 -13.526843 6.623083 
690 35 1 -0.104485 -14.456797 6.280367 
691 35 1 0.028670 -15.386752 5.937650 
692 35 1 0.161825 -16.316706 5.594933 
693 35 1 0.294979 -17.246660 5.252217 
694 35 1 0.428134 -18.176615 4.909500 
695 35 1 0.561289 -19.106569 4.566784 
696 35 1 0.694443 -20.036524 4.224067 
697 35 1 0.827598 -20.966478 3.881351 
698 35 1 0.960753 -21.896432 3.538634 
699 35 1 1.093907 -22.826387 3.195918 
700 35 1 1.227062 -23.756341 2.853201 
701 36 1 5.591443 22.074994 -2.105594 
702 36 1 5.721915 21.083547 -2.108446 
703 36 1 5.852388 20.092099 -2.111297 
704 36 1 5.982861 19.100651 -2.114149 
705 36 1 6.113333 18.109203 -2.117000 
706 36 1 6.243806 17.117755 -2.119852 
707 36 1 6.374279 16.126308 -2.122704 
708 36 1 6.504752 15.134860 -2.125555 
709 36 1 6.635224 14.143412 -2.128407 
710 36 1 6.765697 13.151964 -2.131258 
711 36 1 6.896170 12.160516 -2.134110 
712 36 1 7.026642 11.169069 -2.136962 
713 36 1 7.157115 10.177621 -2.139813 
714 36 1 7.287588 9.186173 -2.142665 
715 36 1 7.418060 8.194725 -2.145516 
716 36 1 7.548533 7.203277 -2.148368 
717 36 1 7.679006 6.211830 -2.151219 
718 36 1 7.809479 5.220382 -2.154071 
719 36 1 7.939951 4.228934 -2.156923 
720 36 1 8.070424 3.237486 -2.159774 
721 37 1 12.349293 20.220842 -10.185999 
722 37 1 11.659802 19.497088 -10.213995 
723 37 1 10.970312 18.773335 -10.241992 
724 37 1 10.280821 18.049581 -10.269989 
725 37 1 9.591331 17.325828 -10.297986 
726 37 1 8.901840 16.602074 -10.325983 
727 37 1 8.212350 15.878321 -10.353979 
728 37 1 7.522859 15.154567 -10.381976 
729 37 1 6.833369 14.430814 -10.409973 
730 37 1 6.143878 13.707061 -10.437970 
731 37 1 5.454388 12.983307 -10.465966 
732 37 1 4.764897 12.259554 -10.493963 
733 37 1 4.075407 11.535800 -10.521960 
734 37 1 3.385916 10.812047 -10.549957 
735 37 1 2.696426 10.088293 -10.577954 
736 37 1 2.006935 9.364540 -10.605950 
737 37 1 1.317445 8.640787 -10.633947 
738 37 1 0.627954 7.917033 -10.661944 
739 37 1 -0.061536 7.193280 -10.689941 
740 37 1 -0.751027 6.469526 -10.717937 
741 38 1 -21.899664 7.244707 16.204648 
742 38 1 -22.058358 8.113370 15.735349 
743 38 1 -22.217051 8.982033 15.266051 
744 38 1 -22.375745 9.850696 14.796752 
745 38 1 -22.534439 10.719359 14.327454 
746 38 1 -22.693133 11.588021 13.858155 
747 38 1 -22.851827 12.456684 13.388857 
748 38 1 -23.010520 13.325347 12.919558 
749 38 1 -23.169214 14.194010 12.450260 
750 38 1 -23.327908 15.062673 11.980961 
751 38 1 -23.486602 15.931336 11.511663 
752 38 1 -23.645295 16.799999 11.042364 
753 38 1 -23.803989 17.668662 10.573066 