# LAMMPS Data File

8000 atoms
0 bonds
0 angles

2 atom types
0 bond types
0 angle types

-50.0 50.0 xlo xhi
-50.0 50.0 ylo yhi
 -0.5  0.5 zlo zhi

Masses

1 1.00
2 1.00

Atoms

1	1	8.597256	22.879972	0
2	1	5.522515	-23.374576	0
3	1	14.509216	-22.689504	0
4	1	-6.867173	21.350278	0
5	1	-3.064397	24.065866	0
6	1	-5.25162	11.959571	0
7	1	-24.900879	24.791883	0
8	1	14.387663	16.34389	0
9	1	-6.506465	13.178836	0
10	1	6.677176	-8.451565	0
11	1	15.472414	-1.226594	0
12	1	11.875989	1.581941	0
13	1	12.457281	7.301262	0
14	1	-20.113008	7.785143	0
15	1	-6.893388	16.718334	0
16	1	-10.223255	17.904636	0
17	1	-8.084413	11.723048	0
18	1	-23.79738	3.735607	0
19	1	-11.335372	-11.688985	0
20	1	-9.943229	-7.734258	0
21	1	-17.529947	1.573794	0
22	1	-7.994556	6.337755	0
23	1	20.395873	6.557925	0
24	1	4.972158	-14.468992	0
25	1	-17.005428	8.107866	0
26	1	7.016111	-20.559299	0
27	1	-15.716948	-15.214788	0
28	1	6.750834	15.540407	0
29	1	9.326903	-23.032128	0
30	1	2.332537	2.350207	0
31	1	23.817966	-21.07106	0
32	1	-11.076591	-6.25958	0
33	1	-5.363431	-24.587028	0
34	1	-18.211678	-10.012127	0
35	1	-23.162503	10.158864	0
36	1	-8.133525	23.967767	0
37	1	23.601518	-22.621623	0
38	1	-7.086932	-19.348701	0
39	1	-1.52947	-3.89207	0
40	1	-16.820699	13.185672	0
41	1	16.020783	-12.522077	0
42	1	3.492375	-22.625916	0
43	1	4.647476	22.299557	0
44	1	-16.264513	16.555738	0
45	1	-5.558191	-7.239971	0
46	1	-0.27216	-11.114169	0
47	1	-8.735508	-17.077554	0
48	1	-17.495367	-10.984436	0
49	1	9.380732	19.693579	0
50	1	-18.002934	-23.827864	0
51	1	-6.262128	-4.619788	0
52	1	-2.887661	-19.36125	0
53	1	-23.84046	16.974322	0
54	1	-5.573302	20.910821	0
55	1	14.403881	-10.971974	0
56	1	-4.162283	21.579226	0
57	1	-21.308553	4.757708	0
58	1	-17.26173	-10.20699	0
59	1	5.27686	-16.88434	0
60	1	8.185832	2.709602	0
61	1	2.415513	-20.253947	0
62	1	-8.816696	-13.065585	0
63	1	-2.971388	-11.112538	0
64	1	6.622818	17.624468	0
65	1	-23.213174	-11.541646	0
66	1	6.083571	-20.505039	0
67	1	-12.755786	6.364896	0
68	1	11.160764	-7.442906	0
69	1	10.177773	-17.506316	0
70	1	-18.854404	14.198067	0
71	1	-2.320622	-21.983382	0
72	1	17.10527	-10.33892	0
73	1	14.730474	-22.899322	0
74	1	24.362983	-17.074667	0
75	1	-19.764409	-5.40308	0
76	1	15.377936	-20.013974	0
77	1	-21.614623	11.061038	0
78	1	-4.889348	16.488231	0
79	1	6.577296	22.134119	0
80	1	-19.723639	-7.962468	0
81	1	-5.831242	-11.778755	0
82	1	16.278235	-7.781255	0
83	1	-13.358264	-18.375384	0
84	1	11.192747	1.824332	0
85	1	-15.219131	17.21389	0
86	1	19.283301	0.468091	0
87	1	23.428699	2.195746	0
88	1	21.820348	-8.769717	0
89	1	-11.281145	19.209756	0
90	1	-5.021874	-22.372003	0
91	1	19.340108	15.830749	0
92	1	-9.897801	8.00741	0
93	1	-19.882199	11.383382	0
94	1	-10.563688	20.060063	0
95	1	9.543134	-21.545146	0
96	1	23.647965	-21.819021	0
97	1	4.182895	23.755643	0
98	1	-11.172542	5.901889	0
99	1	9.66152	-2.33688	0
100	1	24.650892	22.369462	0
101	1	6.536973	-19.825687	0
102	1	-0.022836	10.427075	0
103	1	22.584867	-14.086854	0
104	1	-6.430523	-7.306072	0
105	1	-15.984178	9.855699	0
106	1	-7.47297	11.005221	0
107	1	11.60643	-21.859452	0
108	1	3.565024	10.092154	0
109	1	-17.164815	-6.672515	0
110	1	-21.305344	-12.338073	0
111	1	1.844838	8.008879	0
112	1	17.30313	-17.12226	0
113	1	1.442931	-15.386089	0
114	1	16.633643	-14.761207	0
115	1	-2.519336	1.889785	0
116	1	2.665396	5.860286	0
117	1	-3.614763	-20.760303	0
118	1	-16.571951	13.212186	0
119	1	-18.447161	1.47429	0
120	1	-23.490579	-5.094608	0
121	1	10.663703	-13.265557	0
122	1	23.480095	18.759405	0
123	1	14.091996	-3.114324	0
124	1	12.028808	23.094659	0
125	1	-0.544071	6.88375	0
126	1	-10.98524	-19.693649	0
127	1	21.262702	0.611863	0
128	1	5.569851	-15.114031	0
129	1	-10.524485	-22.110785	0
130	1	-2.504814	-24.500144	0
131	1	-1.606432	13.751009	0
132	1	9.90806	21.47207	0
133	1	17.709677	22.042434	0
134	1	-6.91262	-8.052524	0
135	1	-0.697806	-14.071286	0
136	1	-2.96256	11.964045	0
137	1	7.117964	-24.520175	0
138	1	7.923719	3.488949	0
139	1	-0.25782	-12.41342	0
140	1	-19.060036	20.914024	0
141	1	-9.565567	-3.541427	0
142	1	-22.012976	4.415735	0
143	1	-19.636874	19.742207	0
144	1	-16.587863	-13.660612	0
145	1	16.419459	10.42468	0
146	1	-18.099023	-12.455282	0
147	1	-14.729368	-2.650808	0
148	1	-13.047546	9.52756	0
149	1	15.839845	6.094946	0
150	1	-23.420284	-17.658213	0
151	1	22.186298	2.257139	0
152	1	-10.881744	-9.083855	0
153	1	-21.214809	9.126972	0
154	1	16.200303	12.528253	0
155	1	-19.792276	11.771645	0
156	1	9.328856	5.190546	0
157	1	-2.651883	19.900042	0
158	1	1.617849	2.108479	0
159	1	1.16851	18.814311	0
160	1	-6.521519	21.389252	0
161	1	-10.950837	8.546704	0
162	1	14.697955	14.596065	0
163	1	1.12256	19.689624	0
164	1	-15.080533	-14.371882	0
165	1	-19.9212	-18.401051	0
166	1	4.690919	21.758973	0
167	1	-5.775999	5.421783	0
168	1	17.901414	-9.475256	0
169	1	-20.871825	21.144676	0
170	1	1.148247	9.387717	0
171	1	-3.576972	2.727269	0
172	1	-13.870081	18.63273	0
173	1	-6.797679	-9.190499	0
174	1	-7.030368	-18.961017	0
175	1	15.397254	20.618575	0
176	1	2.921764	5.838533	0
177	1	-12.084973	-21.562313	0
178	1	13.562316	-5.831591	0
179	1	-16.88116	18.486041	0
180	1	-21.010989	-22.262818	0
181	1	9.456645	-17.958826	0
182	1	-5.187116	6.500395	0
183	1	13.997386	21.907267	0
184	1	3.750798	-15.839152	0
185	1	-4.401481	-9.081461	0
186	1	-0.05805	-17.206259	0
187	1	-0.501508	21.995853	0
188	1	-23.658457	-7.429726	0
189	1	6.513708	-23.726393	0
190	1	16.400777	17.837647	0
191	1	4.303758	4.361399	0
192	1	-7.853151	-8.40094	0
193	1	-19.616549	22.376032	0
194	1	-9.337038	-9.606287	0
195	1	-9.929216	13.669505	0
196	1	1.303989	-8.524406	0
197	1	10.011524	-20.301493	0
198	1	3.298109	24.99954	0
199	1	2.79317	19.801771	0
200	1	12.783542	-18.910888	0
201	1	15.721339	-13.2503	0
202	1	-10.468186	-2.671275	0
203	1	19.760516	11.615797	0
204	1	-12.893873	5.137578	0
205	1	-21.816098	20.260006	0
206	1	21.408448	-20.513623	0
207	1	12.160108	4.370799	0
208	1	1.945674	-9.100196	0
209	1	-14.723165	-15.423865	0
210	1	-22.333301	-20.860644	0
211	1	-10.971512	6.359529	0
212	1	8.783806	6.838048	0
213	1	19.528581	19.026562	0
214	1	-13.519708	-6.207557	0
215	1	-0.571686	2.124435	0
216	1	-13.345955	2.915936	0
217	1	5.954887	9.856348	0
218	1	-10.618215	-0.157586	0
219	1	-22.608501	15.961501	0
220	1	-19.937929	-17.354958	0
221	1	-19.975014	1.255258	0
222	1	-19.945256	14.281055	0
223	1	-22.912355	-15.991674	0
224	1	-7.814543	-18.241692	0
225	1	3.113579	10.6284	0
226	1	-17.88659	-19.727999	0
227	1	3.342352	19.538513	0
228	1	-6.086197	20.713334	0
229	1	12.673244	19.098693	0
230	1	0.039702	23.904741	0
231	1	3.797218	17.921659	0
232	1	-3.680304	22.504163	0
233	1	-0.162289	5.961092	0
234	1	17.346557	4.409545	0
235	1	-1.330156	7.183365	0
236	1	3.183776	-11.380934	0
237	1	-24.319184	16.751678	0
238	1	2.034369	-16.573401	0
239	1	-16.062836	10.248084	0
240	1	-23.975399	-6.395028	0
241	1	-14.051917	14.539224	0
242	1	7.950771	-5.36553	0
243	1	5.212078	-5.642398	0
244	1	-13.811213	7.223038	0
245	1	5.497109	13.18933	0
246	1	5.265141	15.357131	0
247	1	4.370282	-5.104158	0
248	1	11.445934	-22.789137	0
249	1	-4.478505	13.783596	0
250	1	8.262367	-6.388563	0
251	1	11.809948	8.247789	0
252	1	-23.778361	4.44205	0
253	1	20.366412	17.92153	0
254	1	-18.713048	-4.478097	0
255	1	2.833577	10.571228	0
256	1	3.768089	7.901885	0
257	1	-19.698427	7.351835	0
258	1	-20.579856	1.293318	0
259	1	10.279593	15.506327	0
260	1	5.871132	-14.831098	0
261	1	-23.217188	-23.552647	0
262	1	23.312605	-14.642285	0
263	1	-16.766094	7.645387	0
264	1	-3.683883	-15.268232	0
265	1	-19.701214	-11.092961	0
266	1	24.060871	23.606262	0
267	1	6.390098	17.689021	0
268	1	23.742064	15.592394	0
269	1	1.283172	10.891112	0
270	1	-11.749104	-10.322633	0
271	1	-13.733322	6.537919	0
272	1	-19.745431	-19.29562	0
273	1	-9.605637	1.153457	0
274	1	-15.323718	0.252633	0
275	1	-12.395096	1.913225	0
276	1	1.575236	-20.082674	0
277	1	-7.243383	-0.641796	0
278	1	21.426629	-11.010341	0
279	1	3.098868	5.116827	0
280	1	-14.743517	-11.213113	0
281	1	5.661543	-4.080517	0
282	1	-11.462963	-6.097586	0
283	1	0.453036	-0.710084	0
284	1	9.914692	-22.133493	0
285	1	-16.483831	9.72319	0
286	1	-18.2994	4.219391	0
287	1	10.672991	-15.022545	0
288	1	9.98708	1.014005	0
289	1	7.462155	14.367056	0
290	1	-14.362021	23.252706	0
291	1	10.367408	1.992049	0
292	1	-0.708501	-11.70929	0
293	1	-20.250899	10.468682	0
294	1	-4.979516	11.558702	0
295	1	-12.301566	-16.015846	0
296	1	19.836966	-16.087544	0
297	1	-8.17581	18.805096	0
298	1	-13.131242	-8.802811	0
299	1	19.02482	13.040421	0
300	1	-12.17654	-5.561418	0
301	1	-14.215727	-7.844387	0
302	1	24.186465	-12.669625	0
303	1	6.452107	4.663733	0
304	1	23.742778	8.681228	0
305	1	-20.448301	6.09612	0
306	1	-18.7042	16.761285	0
307	1	-21.721928	3.711833	0
308	1	9.011182	8.611458	0
309	1	0.63713	-12.948575	0
310	1	3.799763	15.376482	0
311	1	-22.687863	-6.189822	0
312	1	-15.498769	24.401882	0
313	1	16.714231	10.539212	0
314	1	-10.573058	-16.553907	0
315	1	-1.524036	17.459085	0
316	1	-8.257305	9.071586	0
317	1	21.145149	3.642568	0
318	1	-4.925112	13.288719	0
319	1	-23.756851	-18.57985	0
320	1	0.714722	5.484692	0
321	1	-9.386822	-5.694884	0
322	1	11.729395	-7.097295	0
323	1	9.236767	18.22537	0
324	1	-4.557893	11.521958	0
325	1	-6.128771	19.47305	0
326	1	-13.68794	-20.662349	0
327	1	-19.477998	-8.434838	0
328	1	21.214454	24.040985	0
329	1	-21.301185	1.926516	0
330	1	9.120487	-2.900843	0
331	1	-9.835991	-8.997561	0
332	1	-3.255708	-3.451509	0
333	1	-9.156639	-23.106259	0
334	1	5.302941	-21.764003	0
335	1	-24.862507	23.538015	0
336	1	10.492426	4.594716	0
337	1	-21.056782	1.265819	0
338	1	-24.754982	20.464249	0
339	1	1.518	13.446349	0
340	1	18.097252	-18.535378	0
341	1	2.561733	-8.280127	0
342	1	-7.723676	-2.200965	0
343	1	-20.758483	-4.097615	0
344	1	-7.934563	-20.793312	0
345	1	11.674759	1.05398	0
346	1	19.514354	21.711114	0
347	1	-1.430068	-24.457508	0
348	1	4.566584	-8.041486	0
349	1	-1.696855	-7.427755	0
350	1	-22.852831	9.932521	0
351	1	12.540878	13.346762	0
352	1	8.44706	21.025541	0
353	1	1.109936	-5.813581	0
354	1	-10.554905	19.631236	0
355	1	-17.116976	-16.579056	0
356	1	-20.713845	-20.318154	0
357	1	-20.479603	18.327658	0
358	1	16.579149	-12.076221	0
359	1	-17.726772	23.439855	0
360	1	-4.636219	-5.951448	0
361	1	15.616463	-16.551997	0
362	1	16.690481	-1.004142	0
363	1	-5.030444	2.708037	0
364	1	-9.187233	14.935418	0
365	1	-21.575551	11.957105	0
366	1	14.494975	-15.511578	0
367	1	23.621863	-7.156178	0
368	1	-21.317287	17.760044	0
369	1	-22.842565	1.889999	0
370	1	-7.348693	5.177306	0
371	1	16.721294	-10.515323	0
372	1	-0.520781	-24.123971	0
373	1	7.393621	9.254802	0
374	1	-0.517068	-9.433717	0
375	1	-3.087446	-11.692126	0
376	1	11.606452	3.499296	0
377	1	-7.725673	22.490988	0
378	1	18.277279	0.867309	0
379	1	15.452592	-16.192653	0
380	1	-2.337472	24.612871	0
381	1	-17.284807	-21.259867	0
382	1	-2.817816	4.363695	0
383	1	-4.37149	14.029898	0
384	1	-21.089023	-18.104364	0
385	1	-1.466181	23.62784	0
386	1	14.559251	14.745041	0
387	1	6.877792	-9.330848	0
388	1	22.762844	16.645574	0
389	1	-8.516195	-16.404295	0
390	1	0.546077	-6.443053	0
391	1	-12.468942	8.722699	0
392	1	11.53615	-1.91764	0
393	1	-21.785249	-24.338669	0
394	1	2.117128	-15.603305	0
395	1	2.426084	-10.601196	0
396	1	-20.185202	5.350041	0
397	1	-1.167743	-9.221683	0
398	1	-10.279191	4.535473	0
399	1	8.35647	-22.62093	0
400	1	0.348842	13.828412	0
401	1	16.721828	-3.064358	0
402	1	3.941115	-19.567975	0
403	1	-18.588184	14.321097	0
404	1	3.588249	3.572714	0
405	1	-11.523936	16.818706	0
406	1	22.462981	22.742172	0
407	1	11.57126	-23.269821	0
408	1	-23.92447	13.695745	0
409	1	-20.539865	0.373436	0
410	1	6.375384	-3.419319	0
411	1	16.279762	20.612171	0
412	1	-4.043099	-14.852595	0
413	1	-7.000119	9.151862	0
414	1	-24.526408	4.199743	0
415	1	-5.376386	-2.106266	0
416	1	17.931346	24.327237	0
417	1	-9.605813	10.389648	0
418	1	-0.434462	4.006369	0
419	1	-21.8052	-2.0212	0
420	1	-11.532629	13.424342	0
421	1	-8.628945	16.853194	0
422	1	18.504045	4.624355	0
423	1	10.378946	-0.446374	0
424	1	21.798758	12.385608	0
425	1	22.151409	-16.466811	0
426	1	1.840597	-22.55566	0
427	1	2.683339	16.411615	0
428	1	-12.384897	-5.531366	0
429	1	-12.076666	-23.962219	0
430	1	-24.416864	-4.451193	0
431	1	7.904518	-16.437042	0
432	1	13.46201	-6.73298	0
433	1	-9.158177	-15.315075	0
434	1	5.854923	13.282473	0
435	1	-21.294856	-15.007336	0
436	1	18.901076	9.670366	0
437	1	18.131168	-21.509139	0
438	1	-22.422975	14.10687	0
439	1	2.15713	-1.37747	0
440	1	7.69638	-15.260761	0
441	1	-9.724617	-21.999477	0
442	1	-17.29303	14.673242	0
443	1	2.110076	24.670157	0
444	1	1.410283	2.595701	0
445	1	-15.047591	24.01863	0
446	1	-24.79756	8.228431	0
447	1	18.322956	-10.820496	0
448	1	16.787234	3.806164	0
449	1	24.140905	-7.863429	0
450	1	-17.072334	-18.549263	0
451	1	24.359796	17.518909	0
452	1	-14.133807	-9.137952	0
453	1	21.275767	-11.801771	0
454	1	-9.239748	-15.190797	0
455	1	19.870674	-18.104406	0
456	1	-14.085195	20.577496	0
457	1	-6.669953	2.384308	0
458	1	12.709799	11.481429	0
459	1	17.44346	-7.48974	0
460	1	11.956432	-1.971798	0
461	1	5.550113	-20.451347	0
462	1	-4.158096	6.181015	0
463	1	-14.194794	4.870687	0
464	1	18.409418	-23.760933	0
465	1	22.85994	0.02356	0
466	1	-23.56183	4.117561	0
467	1	-4.058488	-18.789528	0
468	1	-17.276637	-2.972306	0
469	1	5.609744	-5.832548	0
470	1	13.756197	5.556667	0
471	1	-10.746022	1.459219	0
472	1	-6.196131	4.14768	0
473	1	-6.860729	14.127452	0
474	1	-12.471326	1.760189	0
475	1	-6.679796	-20.197476	0
476	1	-17.996881	-23.282541	0
477	1	-13.501616	-0.775421	0
478	1	4.227929	-20.155041	0
479	1	21.25379	2.841991	0
480	1	17.726962	-14.563868	0
481	1	-9.131157	-19.339217	0
482	1	21.355683	-11.828305	0
483	1	0.369142	15.421954	0
484	1	11.161437	-2.752815	0
485	1	-9.449944	-17.105706	0
486	1	-1.4821	14.370691	0
487	1	-11.782558	-10.344198	0
488	1	14.623494	-10.666776	0
489	1	8.470715	-16.187204	0
490	1	13.268727	-20.933403	0
491	1	-14.205292	24.553349	0
492	1	-21.119201	20.97401	0
493	1	-24.2196	17.953982	0
494	1	12.942913	7.994663	0
495	1	-15.746266	-20.086546	0
496	1	-19.125735	5.883756	0
497	1	-19.318093	-3.925033	0
498	1	11.39054	14.530471	0
499	1	20.861121	12.588143	0
500	1	-0.218509	-12.151938	0
501	1	9.431573	0.536914	0
502	1	-21.204236	-23.366326	0
503	1	-4.112534	-8.676254	0
504	1	-24.127331	-11.136658	0
505	1	3.526999	3.04542	0
506	1	-5.032658	-1.572915	0
507	1	6.308226	21.42267	0
508	1	1.687624	5.922754	0
509	1	21.201785	24.922086	0
510	1	-13.334744	23.180528	0
511	1	7.045491	-14.29038	0
512	1	-8.200264	-11.607587	0
513	1	-1.614469	14.864512	0
514	1	-5.379758	6.053393	0
515	1	-12.173739	-6.585305	0
516	1	15.219996	-1.317114	0
517	1	15.052584	-19.713321	0
518	1	3.156189	21.824019	0
519	1	-16.71631	16.187019	0
520	1	-6.679979	6.463992	0
521	1	-15.561697	18.377044	0
522	1	0.378695	-0.553995	0
523	1	-19.325404	-22.023724	0
524	1	21.255408	-15.650742	0
525	1	-13.47753	2.574922	0
526	1	-21.99064	24.768952	0
527	1	19.963852	-4.820699	0
528	1	-6.838065	-18.007417	0
529	1	-9.677885	-9.636185	0
530	1	-1.12658	18.649481	0
531	1	6.608168	-4.966392	0
532	1	-5.480199	13.358451	0
533	1	0.154661	-19.940959	0
534	1	19.621573	9.356123	0
535	1	9.491569	-8.513754	0
536	1	-21.590275	3.846016	0
537	1	-7.950233	-0.938373	0
538	1	8.966319	15.839549	0
539	1	-14.45495	14.592823	0
540	1	-6.457449	2.483922	0
541	1	-1.192832	23.225941	0
542	1	-23.034376	-6.417665	0
543	1	24.225727	-19.487194	0
544	1	13.191518	-23.51309	0
545	1	-24.436158	-18.168998	0
546	1	21.821091	23.314082	0
547	1	12.269232	-13.864208	0
548	1	-1.892117	12.753814	0
549	1	23.166446	13.449546	0
550	1	-24.089684	8.020387	0
551	1	-2.46468	21.196452	0
552	1	8.13559	13.397	0
553	1	-19.712209	-1.262429	0
554	1	-14.853098	-8.897147	0
555	1	13.958324	5.470245	0
556	1	23.643456	-19.426854	0
557	1	22.239697	9.540958	0
558	1	17.940449	22.139079	0
559	1	15.73511	22.608911	0
560	1	5.649082	-2.892148	0
561	1	-3.416237	14.749304	0
562	1	9.980908	6.433184	0
563	1	5.740856	14.133337	0
564	1	-20.893933	18.642718	0
565	1	14.657589	3.10821	0
566	1	8.859456	-16.863679	0
567	1	23.361163	-17.322878	0
568	1	-14.123173	3.136292	0
569	1	-12.733345	-12.213177	0
570	1	2.158847	-8.853683	0
571	1	2.397628	-7.430132	0
572	1	13.210725	15.745061	0
573	1	-1.79543	16.241116	0
574	1	-1.458253	-15.226413	0
575	1	-23.298741	-23.390737	0
576	1	13.466875	-1.79123	0
577	1	-22.966374	-21.055713	0
578	1	-20.721422	-24.077392	0
579	1	20.16544	13.160641	0
580	1	-5.160389	21.535782	0
581	1	-19.877507	1.681434	0
582	1	9.951485	-5.373005	0
583	1	14.123209	4.09035	0
584	1	6.654951	23.579436	0
585	1	9.998128	-12.92574	0
586	1	-16.399658	3.054741	0
587	1	4.684829	-18.133983	0
588	1	-13.919823	19.150075	0
589	1	8.827105	15.353006	0
590	1	23.114577	-20.284136	0
591	1	5.158358	-0.516002	0
592	1	1.32545	6.96566	0
593	1	22.446051	-12.653369	0
594	1	-23.430438	-17.271687	0
595	1	-16.818616	5.528105	0
596	1	23.042916	-14.480594	0
597	1	-12.74018	-15.53072	0
598	1	2.325379	22.909165	0
599	1	6.298462	19.262861	0
600	1	-13.685859	16.967712	0
601	1	12.746505	3.171772	0
602	1	-1.249586	-24.064676	0
603	1	-0.536884	-14.573604	0
604	1	-7.747273	15.912178	0
605	1	-23.835352	14.17007	0
606	1	-2.07972	-7.266529	0
607	1	17.357022	-9.468218	0
608	1	-13.535249	-15.060546	0
609	1	-23.956566	10.570736	0
610	1	-6.092094	-5.189823	0
611	1	-1.236912	-9.237872	0
612	1	23.62638	-15.06401	0
613	1	-17.487579	-22.246138	0
614	1	-3.133108	-10.992957	0
615	1	-21.781086	4.063035	0
616	1	-16.391355	-17.861464	0
617	1	-4.766513	13.322948	0
618	1	5.845439	17.1412	0
619	1	-8.6019	-15.6039	0
620	1	15.272672	-15.396358	0
621	1	18.131953	-0.962307	0
622	1	7.251934	-22.746861	0
623	1	19.549634	3.429356	0
624	1	-6.187943	-22.587093	0
625	1	-11.255821	-23.393001	0
626	1	15.508011	21.134601	0
627	1	-17.339048	-23.754888	0
628	1	-12.338275	-13.425722	0
629	1	-14.216235	-3.767535	0
630	1	-20.191564	17.748107	0
631	1	-13.588182	-24.395742	0
632	1	-8.668691	6.63032	0
633	1	18.460311	12.291692	0
634	1	-3.727508	16.527826	0
635	1	17.515306	-6.99369	0
636	1	-10.981625	-12.878334	0
637	1	1.039417	12.698278	0
638	1	19.476969	24.1772	0
639	1	3.016842	11.277716	0
640	1	-22.884047	-14.182409	0
641	1	-20.997317	-22.138177	0
642	1	-22.243315	-14.869896	0
643	1	-4.34749	13.261569	0
644	1	-21.918058	1.787606	0
645	1	-17.192291	-24.752071	0
646	1	9.539741	17.499731	0
647	1	-18.231118	16.082443	0
648	1	-1.471467	18.801464	0
649	1	-4.751905	5.538196	0
650	1	5.992967	-10.309963	0
651	1	-18.695452	23.210389	0
652	1	-24.359761	-10.75135	0
653	1	-21.586559	-23.609779	0
654	1	22.633553	-11.503497	0
655	1	15.147133	4.14239	0
656	1	-7.527895	9.668796	0
657	1	16.249347	-10.202393	0
658	1	-17.728902	19.896729	0
659	1	-22.873241	13.807561	0
660	1	-23.558269	-8.712498	0
661	1	-11.282587	-10.950047	0
662	1	8.771205	-0.595685	0
663	1	4.776506	-19.504014	0
664	1	22.902718	-7.853632	0
665	1	4.273681	21.471624	0
666	1	13.215471	21.028861	0
667	1	5.880812	-2.756228	0
668	1	-11.895337	-13.137006	0
669	1	21.636425	-18.312075	0
670	1	7.917111	11.730174	0
671	1	6.641278	12.780519	0
672	1	7.75317	9.99098	0
673	1	21.709976	15.117234	0
674	1	-17.497118	-11.892767	0
675	1	-2.564496	-21.908176	0
676	1	7.169836	18.979926	0
677	1	12.063277	11.820938	0
678	1	-6.570772	-10.899741	0
679	1	12.093907	14.507185	0
680	1	-20.629919	-17.372584	0
681	1	0.476143	-8.197917	0
682	1	13.986135	24.408646	0
683	1	-12.724364	-20.179484	0
684	1	14.821924	11.803193	0
685	1	6.186769	-14.058211	0
686	1	19.735201	-19.078009	0
687	1	6.196742	16.929103	0
688	1	-14.355207	6.008524	0
689	1	-7.851245	-22.118345	0
690	1	-20.312877	-4.440525	0
691	1	-4.377992	-16.485352	0
692	1	-21.129901	6.05731	0
693	1	17.954329	-16.230854	0
694	1	-6.703788	8.561963	0
695	1	-0.790966	16.242755	0
696	1	6.311566	-5.744944	0
697	1	19.681207	5.968268	0
698	1	12.151359	-23.012212	0
699	1	15.117432	-2.865142	0
700	1	9.71373	1.526248	0
701	1	-22.521127	5.318214	0
702	1	13.805065	-21.663025	0
703	1	-7.766007	-2.980935	0
704	1	1.289378	-16.144172	0
705	1	5.902299	0.39472	0
706	1	-17.70107	6.379121	0
707	1	-6.083328	-17.661568	0
708	1	-19.001043	1.40539	0
709	1	-6.014915	7.319386	0
710	1	-21.749444	11.539827	0
711	1	-8.499976	-15.247694	0
712	1	-9.808971	24.647641	0
713	1	-3.543169	-2.410189	0
714	1	-17.786458	3.060693	0
715	1	15.533313	-20.146747	0
716	1	23.097296	24.694187	0
717	1	-19.696863	9.439598	0
718	1	7.637489	-11.240681	0
719	1	2.64975	4.254751	0
720	1	4.325322	-2.156708	0
721	1	-7.074397	8.798344	0
722	1	-10.248434	-11.57751	0
723	1	-21.434104	-23.878424	0
724	1	-10.531293	-8.423442	0
725	1	-22.098171	5.85165	0
726	1	14.106661	16.600251	0
727	1	-9.759398	10.671763	0
728	1	21.417054	8.351584	0
729	1	24.345416	-6.798885	0
730	1	17.82562	-9.179261	0
731	1	-2.684532	-24.725092	0
732	1	2.91596	22.961971	0
733	1	-4.134039	-18.375659	0
734	1	-13.41796	-15.2635	0
735	1	2.008094	-10.043386	0
736	1	0.727026	9.497316	0
737	1	-4.870933	19.434928	0
738	1	9.087619	-10.385151	0
739	1	2.47208	-10.44152	0
740	1	7.387852	-16.096778	0
741	1	-19.983667	-8.557527	0
742	1	-17.976213	-8.233923	0
743	1	15.757026	23.498107	0
744	1	-3.369516	-21.658851	0
745	1	7.385359	3.51258	0
746	1	-11.300604	-8.962776	0
747	1	-23.631469	-20.870908	0
748	1	17.897656	22.267942	0
749	1	-9.490155	18.528956	0
750	1	23.175617	-23.540314	0
751	1	-23.571803	24.701039	0
752	1	-11.755111	18.2003	0
753	1	15.639091	21.142872	0
754	1	3.225936	-22.907083	0
755	1	23.433625	-22.080456	0
756	1	-7.599245	7.864446	0
757	1	-24.641004	-6.845743	0
758	1	5.701749	4.754379	0
759	1	1.491812	15.915255	0
760	1	24.334382	-19.432848	0
761	1	-18.048937	2.450604	0
762	1	-7.114146	-14.334035	0
763	1	-17.087844	3.958637	0
764	1	-0.200633	-3.249982	0
765	1	-10.447111	4.57751	0
766	1	-11.74588	18.134511	0
767	1	-6.499538	24.910423	0
768	1	-10.554687	-2.569356	0
769	1	8.425923	-21.403902	0
770	1	-19.735854	17.625617	0
771	1	1.984928	12.091169	0
772	1	-22.622181	-12.43737	0
773	1	14.659677	11.630742	0
774	1	-10.290468	12.820883	0
775	1	5.143154	-15.113526	0
776	1	11.318486	-11.004424	0
777	1	-7.807073	-2.202413	0
778	1	-3.402711	18.932059	0
779	1	-2.71126	7.097941	0
780	1	20.364912	19.035082	0
781	1	1.929793	1.022734	0
782	1	-16.879216	-22.709706	0
783	1	19.231286	-7.296834	0
784	1	-13.636226	10.580365	0
785	1	-20.395581	-19.753561	0
786	1	6.993851	-2.152359	0
787	1	-7.238832	-4.797971	0
788	1	14.805444	-0.003826	0
789	1	8.576434	21.709262	0
790	1	-15.963324	-23.804454	0
791	1	7.213645	-23.355457	0
792	1	11.883315	17.887923	0
793	1	13.077351	7.431932	0
794	1	13.122863	-14.504387	0
795	1	-17.663316	12.057405	0
796	1	-19.319785	-17.909294	0
797	1	-23.208155	10.67127	0
798	1	-8.777992	-21.314561	0
799	1	-3.485167	-3.981264	0
800	1	20.679442	-9.492988	0
801	1	3.152523	6.358864	0
802	1	23.959715	-16.161375	0
803	1	23.914417	24.931697	0
804	1	3.426028	-7.100522	0
805	1	-7.260051	11.71937	0
806	1	-2.22242	-10.875229	0
807	1	-14.472071	-3.021011	0
808	1	-16.670427	4.845704	0
809	1	-24.973266	15.168036	0
810	1	-10.538165	23.328707	0
811	1	-14.769612	17.563429	0
812	1	-8.144321	7.45929	0
813	1	-10.528057	24.880575	0
814	1	0.660193	-1.785657	0
815	1	0.643286	21.111483	0
816	1	-16.314055	-23.650165	0
817	1	20.54667	18.940535	0
818	1	8.568962	-12.193742	0
819	1	17.0014	-24.7866	0
820	1	10.477972	-3.817058	0
821	1	8.819253	-2.341007	0
822	1	-3.390857	-18.077834	0
823	1	6.161546	-4.155774	0
824	1	8.225358	-23.159793	0
825	1	4.279696	-9.942841	0
826	1	23.805311	11.165901	0
827	1	-7.079748	-1.801588	0
828	1	-5.809588	-2.765739	0
829	1	6.007065	-18.730235	0
830	1	12.433737	-9.652593	0
831	1	-10.680882	-5.954442	0
832	1	-20.056051	12.357989	0
833	1	-17.628389	-11.943009	0
834	1	-10.398223	13.736791	0
835	1	13.975744	-18.188736	0
836	1	13.755701	20.668894	0
837	1	24.361028	19.346821	0
838	1	-22.243319	12.423231	0
839	1	-14.852058	-1.669636	0
840	1	-15.039499	-2.737128	0
841	1	2.129983	14.123124	0
842	1	-7.750426	10.507285	0
843	1	-14.827324	10.640757	0
844	1	17.948688	5.624938	0
845	1	-0.936991	16.87723	0
846	1	8.277041	-6.828969	0
847	1	-3.931818	-24.724258	0
848	1	6.669834	22.196764	0
849	1	8.711395	3.015496	0
850	1	-22.541734	18.329337	0
851	1	-17.348152	-24.708312	0
852	1	-4.259787	0.208629	0
853	1	-7.708964	-16.654122	0
854	1	-23.093148	6.583803	0
855	1	-11.178726	-23.205806	0
856	1	23.429406	-24.839905	0
857	1	-0.599148	19.689761	0
858	1	-11.767602	-23.287972	0
859	1	-10.78994	-20.49514	0
860	1	-0.672969	14.946802	0
861	1	-23.715288	4.951254	0
862	1	12.100505	15.027615	0
863	1	-10.224709	-15.474764	0
864	1	9.796018	-17.546332	0
865	1	22.694736	2.926135	0
866	1	-15.60723	24.340162	0
867	1	-13.779888	15.677073	0
868	1	-10.653686	-14.751615	0
869	1	0.339725	23.605226	0
870	1	19.966797	8.515267	0
871	1	-11.571422	-9.498182	0
872	1	22.174944	-2.225732	0
873	1	-22.608356	4.86906	0
874	1	20.016183	8.634533	0
875	1	-0.614003	-2.909069	0
876	1	-23.432865	8.111226	0
877	1	17.422577	-13.125763	0
878	1	-10.969472	16.755559	0
879	1	-24.429252	-9.261045	0
880	1	18.777562	-19.565268	0
881	1	-15.610299	-20.557458	0
882	1	17.469029	3.177452	0
883	1	9.976707	-7.497686	0
884	1	20.967348	20.526398	0
885	1	-19.782321	19.665568	0
886	1	-4.655737	3.871555	0
887	1	14.576042	16.602403	0
888	1	23.066094	1.083824	0
889	1	8.092055	-3.761045	0
890	1	-14.840674	22.105197	0
891	1	-10.150692	-21.124052	0
892	1	-0.740601	-6.45939	0
893	1	7.043001	8.124582	0
894	1	-14.085363	13.319545	0
895	1	-17.435666	-7.027946	0
896	1	-3.851135	-0.973644	0
897	1	9.080507	-1.738433	0
898	1	-10.607342	-22.516911	0
899	1	1.871883	15.663505	0
900	1	18.512092	-15.073338	0
901	1	-10.073827	6.499514	0
902	1	-20.785636	-7.559725	0
903	1	-5.209934	20.334347	0
904	1	-1.346817	-6.970946	0
905	1	-13.322401	-1.855981	0
906	1	-5.64377	-9.029579	0
907	1	-7.664028	-14.748268	0
908	1	-4.47093	-4.813607	0
909	1	19.168385	-15.883315	0
910	1	-21.764144	-19.700873	0
911	1	-19.885962	-10.385922	0
912	1	-21.651346	-16.22934	0
913	1	10.840846	8.834103	0
914	1	2.206843	24.467994	0
915	1	-18.187127	-23.450461	0
916	1	15.374596	-12.894514	0
917	1	15.742437	-9.027103	0
918	1	8.518789	14.094619	0
919	1	-15.54695	-2.72795	0
920	1	-16.269379	-20.377408	0
921	1	15.812903	15.619644	0
922	1	-21.122706	9.732605	0
923	1	2.857196	12.666877	0
924	1	-0.372893	-16.537177	0
925	1	17.873999	-20.467948	0
926	1	-5.39604	4.831551	0
927	1	-9.376327	-11.154622	0
928	1	6.118354	3.106884	0
929	1	-19.231285	10.438416	0
930	1	14.396387	14.297057	0
931	1	12.422768	-18.083792	0
932	1	21.38526	24.925271	0
933	1	-22.022739	-18.410359	0
934	1	5.688173	4.650723	0
935	1	3.056898	18.752301	0
936	1	-22.555675	21.548616	0
937	1	-11.226061	12.224231	0
938	1	-24.391082	-8.209851	0
939	1	1.51538	-10.98422	0
940	1	9.161916	-25	0
941	1	-4.656367	-4.096227	0
942	1	7.544225	-7.651065	0
943	1	3.688326	24.883407	0
944	1	-7.574663	-15.791412	0
945	1	7.941427	14.977744	0
946	1	19.287383	24.743592	0
947	1	-9.132168	4.522393	0
948	1	14.512125	19.543125	0
949	1	0.093045	8.404146	0
950	1	18.840917	15.298987	0
951	1	0.413292	25	0
952	1	-1.245811	-14.5964	0
953	1	7.134777	12.053965	0
954	1	-6.306498	-22.722548	0
955	1	11.308924	0.768845	0
956	1	-14.70412	11.606374	0
957	1	-11.271161	19.378901	0
958	1	-20.136952	-14.230321	0
959	1	-10.09829	4.003511	0
960	1	1.419682	-5.573548	0
961	1	21.718363	-3.448097	0
962	1	15.92358	-12.5023	0
963	1	-23.516545	22.183937	0
964	1	2.892668	-0.742682	0
965	1	2.848189	16.44681	0
966	1	1.631421	-10.354189	0
967	1	-15.960238	19.543723	0
968	1	-10.573387	-0.134056	0
969	1	-5.658625	21.213876	0
970	1	-23.230554	-15.495083	0
971	1	15.972228	-1.987532	0
972	1	-8.072881	-7.99407	0
973	1	8.367521	-5.009299	0
974	1	23.683716	-24.787388	0
975	1	-18.141546	13.775775	0
976	1	2.915786	-23.673125	0
977	1	-12.247773	-20.949113	0
978	1	20.481179	-18.766791	0
979	1	-3.18796	15.435241	0
980	1	24.290212	16.934382	0
981	1	-1.862907	-23.235967	0
982	1	16.703319	2.473099	0
983	1	10.271298	-20.231684	0
984	1	18.683998	-8.449952	0
985	1	7.739719	4.15574	0
986	1	-15.371405	-0.828614	0
987	1	21.415692	-18.910948	0
988	1	10.426744	9.271474	0
989	1	-9.358243	2.103952	0
990	1	-16.718818	-17.144163	0
991	1	-6.940676	-9.823493	0
992	1	-8.011442	-18.010601	0
993	1	0.108651	-14.082769	0
994	1	12.076163	-7.337087	0
995	1	-0.108016	8.986705	0
996	1	2.717516	-4.937994	0
997	1	16.430157	19.058218	0
998	1	6.693203	23.814011	0
999	1	-20.070425	6.727072	0
1000	1	3.72279	-15.265375	0
1001	1	-12.18148	5.71914	0
1002	1	-20.430986	4.141925	0
1003	1	4.765716	-17.163004	0
1004	1	-13.000673	-15.713222	0
1005	1	-12.284751	9.66867	0
1006	1	22.034881	11.916071	0
1007	1	14.171817	-3.773571	0
1008	1	16.590874	22.961005	0
1009	1	-23.589966	14.165336	0
1010	1	-6.121494	-17.671223	0
1011	1	-23.433577	0.845941	0
1012	1	0.48498	2.38259	0
1013	1	11.882338	-0.191598	0
1014	1	-13.146508	-18.178357	0
1015	1	10.609514	-2.398366	0
1016	1	18.163246	6.961136	0
1017	1	16.153646	-23.618813	0
1018	1	7.609439	17.412269	0
1019	1	5.0047	20.430701	0
1020	1	24.083272	-1.837758	0
1021	1	13.906553	12.680294	0
1022	1	-13.748056	20.054255	0
1023	1	18.652846	-23.410474	0
1024	1	15.331725	10.790035	0
1025	1	17.974779	24.1856	0
1026	1	-23.544869	-2.472847	0
1027	1	-16.420448	-17.448288	0
1028	1	7.119004	-23.865467	0
1029	1	-1.369635	-19.292935	0
1030	1	23.459037	13.346707	0
1031	1	16.626418	-11.113142	0
1032	1	-21.730091	10.55692	0
1033	1	-17.317089	12.222292	0
1034	1	-14.910676	6.401597	0
1035	1	19.211044	0.820565	0
1036	1	-7.547025	11.224266	0
1037	1	-11.770165	-1.955554	0
1038	1	2.519569	-21.472201	0
1039	1	0.68703	10.394431	0
1040	1	-18.900614	18.977367	0
1041	1	9.912368	-12.914166	0
1042	1	-22.061126	-12.709415	0
1043	1	21.303976	16.226057	0
1044	1	20.001988	13.892238	0
1045	1	-16.281691	-1.093471	0
1046	1	21.444786	-14.812687	0
1047	1	10.767482	16.869043	0
1048	1	-8.788867	13.992064	0
1049	1	14.574695	-15.107205	0
1050	1	-2.676434	17.368637	0
1051	1	-21.600852	23.772989	0
1052	1	-3.438015	23.511555	0
1053	1	12.069684	8.028373	0
1054	1	3.580153	-10.928897	0
1055	1	-9.103426	-0.156506	0
1056	1	-21.213295	17.051396	0
1057	1	-6.205836	-8.216428	0
1058	1	-19.406302	-18.072671	0
1059	1	3.665741	-10.438458	0
1060	1	-19.387669	19.006102	0
1061	1	18.252013	-22.747447	0
1062	1	5.829805	3.050915	0
1063	1	-8.080894	16.946587	0
1064	1	-20.910683	-2.839032	0
1065	1	-19.854161	-4.968541	0
1066	1	-10.02993	14.051461	0