LAMMPS Description

     14976  atoms
     15912  bonds
     24336  angles
     34164  dihedrals
     19656  impropers

     3  atom types
     4  bond types
     6  angle types
     13  dihedral types
     1  improper types

     -109.584 104.03 xlo xhi 
     -109.584 104.03 ylo yhi 
     -109.584 104.03 zlo zhi 

Masses

    1 12.011 #CA "Aromatic C" 6 partial charge=-0.115
    2 1.008 #HA "Aromatic H-C" 1 partial charge=0.115
    3 12.011 #C! "Biphenyl C1" 6 partial charge=0.0

Atoms

1 1 1 0 -4.907 -3.606 -0.003
2 1 1 0 -3.876 -4.516 0.002
3 1 1 0 -2.597 -4.017 0.003
4 1 1 0 -2.379 -2.621 0.003
5 1 3 0 -3.395 -1.61 -0.001
6 1 1 0 -4.651 -2.212 -0.009
7 1 3 0 -3.817 1.188 0.001
8 1 3 0 -3.045 -0.068 -0.001
9 1 1 0 -1.599 0.129 -0.001
10 1 1 0 -0.89 1.327 0.0
11 1 1 0 -1.597 2.478 0.0
12 1 1 0 -2.986 2.388 0.001
13 1 3 0 -5.351 1.575 0.001
14 1 1 0 -6.459 0.731 0.009
15 1 1 0 -7.817 1.137 0.003
16 1 1 0 -8.159 2.47 -0.002
17 1 1 0 -5.79 2.94 -0.003
18 1 1 0 -7.132 3.382 -0.003
19 1 2 0 -5.938 -3.956 -0.006
20 1 2 0 -4.067 -5.584 0.002
21 1 2 0 -1.746 -4.695 0.003
22 1 2 0 -1.319 -2.405 0.005
23 1 2 0 -5.549 -1.668 -0.03
24 1 2 0 -0.902 -0.695 -0.002
25 1 2 0 0.196 1.331 -0.001
26 1 2 0 -1.102 3.444 0.001
27 1 2 0 -3.405 3.383 0.002
28 1 2 0 -6.387 -0.317 0.03
29 1 2 0 -8.598 0.379 0.006
30 1 2 0 -9.196 2.786 -0.002
31 1 2 0 -5.116 3.786 -0.005
32 1 2 0 -7.349 4.447 -0.003
33 2 1 0 -4.907 -12.606 -0.003
34 2 1 0 -3.876 -13.516 0.002
35 2 1 0 -2.597 -13.017 0.003
36 2 1 0 -2.379 -11.621 0.003
37 2 3 0 -3.395 -10.61 -0.001
38 2 1 0 -4.651 -11.212 -0.009
39 2 3 0 -3.817 -7.812 0.001
40 2 3 0 -3.045 -9.068 -0.001
41 2 1 0 -1.599 -8.871 -0.001
42 2 1 0 -0.89 -7.673 0.0
43 2 1 0 -1.597 -6.522 0.0
44 2 1 0 -2.986 -6.612 0.001
45 2 3 0 -5.351 -7.425 0.001
46 2 1 0 -6.459 -8.269 0.009
47 2 1 0 -7.817 -7.863 0.003
48 2 1 0 -8.159 -6.53 -0.002
49 2 1 0 -5.79 -6.06 -0.003
50 2 1 0 -7.132 -5.618 -0.003
51 2 2 0 -5.938 -12.956 -0.006
52 2 2 0 -4.067 -14.584 0.002
53 2 2 0 -1.746 -13.695 0.003
54 2 2 0 -1.319 -11.405 0.005
55 2 2 0 -5.549 -10.668 -0.03
56 2 2 0 -0.902 -9.695 -0.002
57 2 2 0 0.196 -7.669 -0.001
58 2 2 0 -1.102 -5.556 0.001
59 2 2 0 -3.405 -5.617 0.002
60 2 2 0 -6.387 -9.317 0.03
61 2 2 0 -8.598 -8.621 0.006
62 2 2 0 -9.196 -6.214 -0.002
63 2 2 0 -5.116 -5.214 -0.005
64 2 2 0 -7.349 -4.553 -0.003
65 3 1 0 -4.907 -12.606 8.997
66 3 1 0 -3.876 -13.516 9.002
67 3 1 0 -2.597 -13.017 9.003
68 3 1 0 -2.379 -11.621 9.003
69 3 3 0 -3.395 -10.61 8.999
70 3 1 0 -4.651 -11.212 8.991
71 3 3 0 -3.817 -7.812 9.001
72 3 3 0 -3.045 -9.068 8.999
73 3 1 0 -1.599 -8.871 8.999
74 3 1 0 -0.89 -7.673 9.0
75 3 1 0 -1.597 -6.522 9.0
76 3 1 0 -2.986 -6.612 9.001
77 3 3 0 -5.351 -7.425 9.001
78 3 1 0 -6.459 -8.269 9.009
79 3 1 0 -7.817 -7.863 9.003
80 3 1 0 -8.159 -6.53 8.998
81 3 1 0 -5.79 -6.06 8.997
82 3 1 0 -7.132 -5.618 8.997
83 3 2 0 -5.938 -12.956 8.994
84 3 2 0 -4.067 -14.584 9.002
85 3 2 0 -1.746 -13.695 9.003
86 3 2 0 -1.319 -11.405 9.005
87 3 2 0 -5.549 -10.668 8.97
88 3 2 0 -0.902 -9.695 8.998
89 3 2 0 0.196 -7.669 8.999
90 3 2 0 -1.102 -5.556 9.001
91 3 2 0 -3.405 -5.617 9.002
92 3 2 0 -6.387 -9.317 9.03
93 3 2 0 -8.598 -8.621 9.006
94 3 2 0 -9.196 -6.214 8.998
95 3 2 0 -5.116 -5.214 8.995
96 3 2 0 -7.349 -4.553 8.997
97 4 1 0 -4.907 -3.606 8.997
98 4 1 0 -3.876 -4.516 9.002
99 4 1 0 -2.597 -4.017 9.003
100 4 1 0 -2.379 -2.621 9.003
101 4 3 0 -3.395 -1.61 8.999
102 4 1 0 -4.651 -2.212 8.991
103 4 3 0 -3.817 1.188 9.001
104 4 3 0 -3.045 -0.068 8.999
105 4 1 0 -1.599 0.129 8.999
106 4 1 0 -0.89 1.327 9.0
107 4 1 0 -1.597 2.478 9.0
108 4 1 0 -2.986 2.388 9.001
109 4 3 0 -5.351 1.575 9.001
110 4 1 0 -6.459 0.731 9.009
111 4 1 0 -7.817 1.137 9.003
112 4 1 0 -8.159 2.47 8.998
113 4 1 0 -5.79 2.94 8.997
114 4 1 0 -7.132 3.382 8.997
115 4 2 0 -5.938 -3.956 8.994
116 4 2 0 -4.067 -5.584 9.002
117 4 2 0 -1.746 -4.695 9.003
118 4 2 0 -1.319 -2.405 9.005
119 4 2 0 -5.549 -1.668 8.97
120 4 2 0 -0.902 -0.695 8.998
121 4 2 0 0.196 1.331 8.999
122 4 2 0 -1.102 3.444 9.001
123 4 2 0 -3.405 3.383 9.002
124 4 2 0 -6.387 -0.317 9.03
125 4 2 0 -8.598 0.379 9.006
126 4 2 0 -9.196 2.786 8.998
127 4 2 0 -5.116 3.786 8.995
128 4 2 0 -7.349 4.447 8.997
129 5 1 0 -4.907 5.394 8.997
130 5 1 0 -3.876 4.484 9.002
131 5 1 0 -2.597 4.983 9.003
132 5 1 0 -2.379 6.379 9.003
133 5 3 0 -3.395 7.39 8.999
134 5 1 0 -4.651 6.788 8.991
135 5 3 0 -3.817 10.188 9.001
136 5 3 0 -3.045 8.932 8.999
137 5 1 0 -1.599 9.129 8.999
138 5 1 0 -0.89 10.327 9.0
139 5 1 0 -1.597 11.478 9.0
140 5 1 0 -2.986 11.388 9.001
141 5 3 0 -5.351 10.575 9.001
142 5 1 0 -6.459 9.731 9.009
143 5 1 0 -7.817 10.137 9.003
144 5 1 0 -8.159 11.47 8.998
145 5 1 0 -5.79 11.94 8.997
146 5 1 0 -7.132 12.382 8.997
147 5 2 0 -5.938 5.044 8.994
148 5 2 0 -4.067 3.416 9.002
149 5 2 0 -1.746 4.305 9.003
150 5 2 0 -1.319 6.595 9.005
151 5 2 0 -5.549 7.332 8.97
152 5 2 0 -0.902 8.305 8.998
153 5 2 0 0.196 10.331 8.999
154 5 2 0 -1.102 12.444 9.001
155 5 2 0 -3.405 12.383 9.002
156 5 2 0 -6.387 8.683 9.03
157 5 2 0 -8.598 9.379 9.006
158 5 2 0 -9.196 11.786 8.998
159 5 2 0 -5.116 12.786 8.995
160 5 2 0 -7.349 13.447 8.997
161 6 1 0 -4.907 5.394 -0.003
162 6 1 0 -3.876 4.484 0.002
163 6 1 0 -2.597 4.983 0.003
164 6 1 0 -2.379 6.379 0.003
165 6 3 0 -3.395 7.39 -0.001
166 6 1 0 -4.651 6.788 -0.009
167 6 3 0 -3.817 10.188 0.001
168 6 3 0 -3.045 8.932 -0.001
169 6 1 0 -1.599 9.129 -0.001
170 6 1 0 -0.89 10.327 0.0
171 6 1 0 -1.597 11.478 0.0
172 6 1 0 -2.986 11.388 0.001
173 6 3 0 -5.351 10.575 0.001
174 6 1 0 -6.459 9.731 0.009
175 6 1 0 -7.817 10.137 0.003
176 6 1 0 -8.159 11.47 -0.002
177 6 1 0 -5.79 11.94 -0.003
178 6 1 0 -7.132 12.382 -0.003
179 6 2 0 -5.938 5.044 -0.006
180 6 2 0 -4.067 3.416 0.002
181 6 2 0 -1.746 4.305 0.003
182 6 2 0 -1.319 6.595 0.005
183 6 2 0 -5.549 7.332 -0.03
184 6 2 0 -0.902 8.305 -0.002
185 6 2 0 0.196 10.331 -0.001
186 6 2 0 -1.102 12.444 0.001
187 6 2 0 -3.405 12.383 0.002
188 6 2 0 -6.387 8.683 0.03
189 6 2 0 -8.598 9.379 0.006
190 6 2 0 -9.196 11.786 -0.002
191 6 2 0 -5.116 12.786 -0.005
192 6 2 0 -7.349 13.447 -0.003
193 7 1 0 -4.907 5.394 -9.003
194 7 1 0 -3.876 4.484 -8.998
195 7 1 0 -2.597 4.983 -8.997
196 7 1 0 -2.379 6.379 -8.997
197 7 3 0 -3.395 7.39 -9.001
198 7 1 0 -4.651 6.788 -9.009
199 7 3 0 -3.817 10.188 -8.999
200 7 3 0 -3.045 8.932 -9.001
201 7 1 0 -1.599 9.129 -9.001
202 7 1 0 -0.89 10.327 -9.0
203 7 1 0 -1.597 11.478 -9.0
204 7 1 0 -2.986 11.388 -8.999
205 7 3 0 -5.351 10.575 -8.999
206 7 1 0 -6.459 9.731 -8.991
207 7 1 0 -7.817 10.137 -8.997
208 7 1 0 -8.159 11.47 -9.002
209 7 1 0 -5.79 11.94 -9.003
210 7 1 0 -7.132 12.382 -9.003
211 7 2 0 -5.938 5.044 -9.006
212 7 2 0 -4.067 3.416 -8.998
213 7 2 0 -1.746 4.305 -8.997
214 7 2 0 -1.319 6.595 -8.995
215 7 2 0 -5.549 7.332 -9.03
216 7 2 0 -0.902 8.305 -9.002
217 7 2 0 0.196 10.331 -9.001
218 7 2 0 -1.102 12.444 -8.999
219 7 2 0 -3.405 12.383 -8.998
220 7 2 0 -6.387 8.683 -8.97
221 7 2 0 -8.598 9.379 -8.994
222 7 2 0 -9.196 11.786 -9.002
223 7 2 0 -5.116 12.786 -9.005
224 7 2 0 -7.349 13.447 -9.003
225 8 1 0 -4.907 -3.606 -9.003
226 8 1 0 -3.876 -4.516 -8.998
227 8 1 0 -2.597 -4.017 -8.997
228 8 1 0 -2.379 -2.621 -8.997
229 8 3 0 -3.395 -1.61 -9.001
230 8 1 0 -4.651 -2.212 -9.009
231 8 3 0 -3.817 1.188 -8.999
232 8 3 0 -3.045 -0.068 -9.001
233 8 1 0 -1.599 0.129 -9.001
234 8 1 0 -0.89 1.327 -9.0
235 8 1 0 -1.597 2.478 -9.0
236 8 1 0 -2.986 2.388 -8.999
237 8 3 0 -5.351 1.575 -8.999
238 8 1 0 -6.459 0.731 -8.991
239 8 1 0 -7.817 1.137 -8.997
240 8 1 0 -8.159 2.47 -9.002
241 8 1 0 -5.79 2.94 -9.003
242 8 1 0 -7.132 3.382 -9.003
243 8 2 0 -5.938 -3.956 -9.006
244 8 2 0 -4.067 -5.584 -8.998
245 8 2 0 -1.746 -4.695 -8.997
246 8 2 0 -1.319 -2.405 -8.995
247 8 2 0 -5.549 -1.668 -9.03
248 8 2 0 -0.902 -0.695 -9.002
249 8 2 0 0.196 1.331 -9.001
250 8 2 0 -1.102 3.444 -8.999
251 8 2 0 -3.405 3.383 -8.998
252 8 2 0 -6.387 -0.317 -8.97
253 8 2 0 -8.598 0.379 -8.994
254 8 2 0 -9.196 2.786 -9.002
255 8 2 0 -5.116 3.786 -9.005
256 8 2 0 -7.349 4.447 -9.003
257 9 1 0 -4.907 -12.606 -9.003
258 9 1 0 -3.876 -13.516 -8.998
259 9 1 0 -2.597 -13.017 -8.997
260 9 1 0 -2.379 -11.621 -8.997
261 9 3 0 -3.395 -10.61 -9.001
262 9 1 0 -4.651 -11.212 -9.009
263 9 3 0 -3.817 -7.812 -8.999
264 9 3 0 -3.045 -9.068 -9.001
265 9 1 0 -1.599 -8.871 -9.001
266 9 1 0 -0.89 -7.673 -9.0
267 9 1 0 -1.597 -6.522 -9.0
268 9 1 0 -2.986 -6.612 -8.999
269 9 3 0 -5.351 -7.425 -8.999
270 9 1 0 -6.459 -8.269 -8.991
271 9 1 0 -7.817 -7.863 -8.997
272 9 1 0 -8.159 -6.53 -9.002
273 9 1 0 -5.79 -6.06 -9.003
274 9 1 0 -7.132 -5.618 -9.003
275 9 2 0 -5.938 -12.956 -9.006
276 9 2 0 -4.067 -14.584 -8.998
277 9 2 0 -1.746 -13.695 -8.997
278 9 2 0 -1.319 -11.405 -8.995
279 9 2 0 -5.549 -10.668 -9.03
280 9 2 0 -0.902 -9.695 -9.002
281 9 2 0 0.196 -7.669 -9.001
282 9 2 0 -1.102 -5.556 -8.999
283 9 2 0 -3.405 -5.617 -8.998
284 9 2 0 -6.387 -9.317 -8.97
285 9 2 0 -8.598 -8.621 -8.994
286 9 2 0 -9.196 -6.214 -9.002
287 9 2 0 -5.116 -5.214 -9.005
288 9 2 0 -7.349 -4.553 -9.003
289 10 1 0 -4.907 -21.606 -9.003
290 10 1 0 -3.876 -22.516 -8.998
291 10 1 0 -2.597 -22.017 -8.997
292 10 1 0 -2.379 -20.621 -8.997
293 10 3 0 -3.395 -19.61 -9.001
294 10 1 0 -4.651 -20.212 -9.009
295 10 3 0 -3.817 -16.812 -8.999
296 10 3 0 -3.045 -18.068 -9.001
297 10 1 0 -1.599 -17.871 -9.001
298 10 1 0 -0.89 -16.673 -9.0
299 10 1 0 -1.597 -15.522 -9.0
300 10 1 0 -2.986 -15.612 -8.999
301 10 3 0 -5.351 -16.425 -8.999
302 10 1 0 -6.459 -17.269 -8.991
303 10 1 0 -7.817 -16.863 -8.997
304 10 1 0 -8.159 -15.53 -9.002
305 10 1 0 -5.79 -15.06 -9.003
306 10 1 0 -7.132 -14.618 -9.003
307 10 2 0 -5.938 -21.956 -9.006
308 10 2 0 -4.067 -23.584 -8.998
309 10 2 0 -1.746 -22.695 -8.997
310 10 2 0 -1.319 -20.405 -8.995
311 10 2 0 -5.549 -19.668 -9.03
312 10 2 0 -0.902 -18.695 -9.002
313 10 2 0 0.196 -16.669 -9.001
314 10 2 0 -1.102 -14.556 -8.999
315 10 2 0 -3.405 -14.617 -8.998
316 10 2 0 -6.387 -18.317 -8.97
317 10 2 0 -8.598 -17.621 -8.994
318 10 2 0 -9.196 -15.214 -9.002
319 10 2 0 -5.116 -14.214 -9.005
320 10 2 0 -7.349 -13.553 -9.003
321 11 1 0 -4.907 -21.606 -0.003
322 11 1 0 -3.876 -22.516 0.002
323 11 1 0 -2.597 -22.017 0.003
324 11 1 0 -2.379 -20.621 0.003
325 11 3 0 -3.395 -19.61 -0.001
326 11 1 0 -4.651 -20.212 -0.009
327 11 3 0 -3.817 -16.812 0.001
328 11 3 0 -3.045 -18.068 -0.001
329 11 1 0 -1.599 -17.871 -0.001
330 11 1 0 -0.89 -16.673 0.0
331 11 1 0 -1.597 -15.522 0.0
332 11 1 0 -2.986 -15.612 0.001
333 11 3 0 -5.351 -16.425 0.001
334 11 1 0 -6.459 -17.269 0.009
335 11 1 0 -7.817 -16.863 0.003
336 11 1 0 -8.159 -15.53 -0.002
337 11 1 0 -5.79 -15.06 -0.003
338 11 1 0 -7.132 -14.618 -0.003
339 11 2 0 -5.938 -21.956 -0.006
340 11 2 0 -4.067 -23.584 0.002
341 11 2 0 -1.746 -22.695 0.003
342 11 2 0 -1.319 -20.405 0.005
343 11 2 0 -5.549 -19.668 -0.03
344 11 2 0 -0.902 -18.695 -0.002
345 11 2 0 0.196 -16.669 -0.001
346 11 2 0 -1.102 -14.556 0.001
347 11 2 0 -3.405 -14.617 0.002
348 11 2 0 -6.387 -18.317 0.03
349 11 2 0 -8.598 -17.621 0.006
350 11 2 0 -9.196 -15.214 -0.002
351 11 2 0 -5.116 -14.214 -0.005
352 11 2 0 -7.349 -13.553 -0.003
353 12 1 0 -4.907 -21.606 8.997
354 12 1 0 -3.876 -22.516 9.002
355 12 1 0 -2.597 -22.017 9.003
356 12 1 0 -2.379 -20.621 9.003
357 12 3 0 -3.395 -19.61 8.999
358 12 1 0 -4.651 -20.212 8.991
359 12 3 0 -3.817 -16.812 9.001
360 12 3 0 -3.045 -18.068 8.999
361 12 1 0 -1.599 -17.871 8.999
362 12 1 0 -0.89 -16.673 9.0
363 12 1 0 -1.597 -15.522 9.0
364 12 1 0 -2.986 -15.612 9.001
365 12 3 0 -5.351 -16.425 9.001
366 12 1 0 -6.459 -17.269 9.009
367 12 1 0 -7.817 -16.863 9.003
368 12 1 0 -8.159 -15.53 8.998
369 12 1 0 -5.79 -15.06 8.997
370 12 1 0 -7.132 -14.618 8.997
371 12 2 0 -5.938 -21.956 8.994
372 12 2 0 -4.067 -23.584 9.002
373 12 2 0 -1.746 -22.695 9.003
374 12 2 0 -1.319 -20.405 9.005
375 12 2 0 -5.549 -19.668 8.97
376 12 2 0 -0.902 -18.695 8.998
377 12 2 0 0.196 -16.669 8.999
378 12 2 0 -1.102 -14.556 9.001
379 12 2 0 -3.405 -14.617 9.002
380 12 2 0 -6.387 -18.317 9.03
381 12 2 0 -8.598 -17.621 9.006
382 12 2 0 -9.196 -15.214 8.998
383 12 2 0 -5.116 -14.214 8.995
384 12 2 0 -7.349 -13.553 8.997
385 13 1 0 -4.907 -21.606 17.997
386 13 1 0 -3.876 -22.516 18.002
387 13 1 0 -2.597 -22.017 18.003
388 13 1 0 -2.379 -20.621 18.003
389 13 3 0 -3.395 -19.61 17.999
390 13 1 0 -4.651 -20.212 17.991
391 13 3 0 -3.817 -16.812 18.001
392 13 3 0 -3.045 -18.068 17.999
393 13 1 0 -1.599 -17.871 17.999
394 13 1 0 -0.89 -16.673 18.0
395 13 1 0 -1.597 -15.522 18.0
396 13 1 0 -2.986 -15.612 18.001
397 13 3 0 -5.351 -16.425 18.001
398 13 1 0 -6.459 -17.269 18.009
399 13 1 0 -7.817 -16.863 18.003
400 13 1 0 -8.159 -15.53 17.998
401 13 1 0 -5.79 -15.06 17.997
402 13 1 0 -7.132 -14.618 17.997
403 13 2 0 -5.938 -21.956 17.994
404 13 2 0 -4.067 -23.584 18.002
405 13 2 0 -1.746 -22.695 18.003
406 13 2 0 -1.319 -20.405 18.005
407 13 2 0 -5.549 -19.668 17.97
408 13 2 0 -0.902 -18.695 17.998
409 13 2 0 0.196 -16.669 17.999
410 13 2 0 -1.102 -14.556 18.001
411 13 2 0 -3.405 -14.617 18.002
412 13 2 0 -6.387 -18.317 18.03
413 13 2 0 -8.598 -17.621 18.006
414 13 2 0 -9.196 -15.214 17.998
415 13 2 0 -5.116 -14.214 17.995
416 13 2 0 -7.349 -13.553 17.997
417 14 1 0 -4.907 -12.606 17.997
418 14 1 0 -3.876 -13.516 18.002
419 14 1 0 -2.597 -13.017 18.003
420 14 1 0 -2.379 -11.621 18.003
421 14 3 0 -3.395 -10.61 17.999
422 14 1 0 -4.651 -11.212 17.991
423 14 3 0 -3.817 -7.812 18.001
424 14 3 0 -3.045 -9.068 17.999
425 14 1 0 -1.599 -8.871 17.999
426 14 1 0 -0.89 -7.673 18.0
427 14 1 0 -1.597 -6.522 18.0
428 14 1 0 -2.986 -6.612 18.001
429 14 3 0 -5.351 -7.425 18.001
430 14 1 0 -6.459 -8.269 18.009
431 14 1 0 -7.817 -7.863 18.003
432 14 1 0 -8.159 -6.53 17.998
433 14 1 0 -5.79 -6.06 17.997
434 14 1 0 -7.132 -5.618 17.997
435 14 2 0 -5.938 -12.956 17.994
436 14 2 0 -4.067 -14.584 18.002
437 14 2 0 -1.746 -13.695 18.003
438 14 2 0 -1.319 -11.405 18.005
439 14 2 0 -5.549 -10.668 17.97
440 14 2 0 -0.902 -9.695 17.998
441 14 2 0 0.196 -7.669 17.999
442 14 2 0 -1.102 -5.556 18.001
443 14 2 0 -3.405 -5.617 18.002
444 14 2 0 -6.387 -9.317 18.03
445 14 2 0 -8.598 -8.621 18.006
446 14 2 0 -9.196 -6.214 17.998
447 14 2 0 -5.116 -5.214 17.995
448 14 2 0 -7.349 -4.553 17.997
449 15 1 0 -4.907 -3.606 17.997
450 15 1 0 -3.876 -4.516 18.002
451 15 1 0 -2.597 -4.017 18.003
452 15 1 0 -2.379 -2.621 18.003
453 15 3 0 -3.395 -1.61 17.999
454 15 1 0 -4.651 -2.212 17.991
455 15 3 0 -3.817 1.188 18.001
456 15 3 0 -3.045 -0.068 17.999
457 15 1 0 -1.599 0.129 17.999
458 15 1 0 -0.89 1.327 18.0
459 15 1 0 -1.597 2.478 18.0
460 15 1 0 -2.986 2.388 18.001
461 15 3 0 -5.351 1.575 18.001
462 15 1 0 -6.459 0.731 18.009
463 15 1 0 -7.817 1.137 18.003
464 15 1 0 -8.159 2.47 17.998
465 15 1 0 -5.79 2.94 17.997
466 15 1 0 -7.132 3.382 17.997
467 15 2 0 -5.938 -3.956 17.994
468 15 2 0 -4.067 -5.584 18.002
469 15 2 0 -1.746 -4.695 18.003
470 15 2 0 -1.319 -2.405 18.005
471 15 2 0 -5.549 -1.668 17.97
472 15 2 0 -0.902 -0.695 17.998
473 15 2 0 0.196 1.331 17.999
474 15 2 0 -1.102 3.444 18.001
475 15 2 0 -3.405 3.383 18.002
476 15 2 0 -6.387 -0.317 18.03
477 15 2 0 -8.598 0.379 18.006
478 15 2 0 -9.196 2.786 17.998
479 15 2 0 -5.116 3.786 17.995
480 15 2 0 -7.349 4.447 17.997
481 16 1 0 -4.907 5.394 17.997
482 16 1 0 -3.876 4.484 18.002
483 16 1 0 -2.597 4.983 18.003
484 16 1 0 -2.379 6.379 18.003
485 16 3 0 -3.395 7.39 17.999
486 16 1 0 -4.651 6.788 17.991
487 16 3 0 -3.817 10.188 18.001
488 16 3 0 -3.045 8.932 17.999
489 16 1 0 -1.599 9.129 17.999
490 16 1 0 -0.89 10.327 18.0
491 16 1 0 -1.597 11.478 18.0
492 16 1 0 -2.986 11.388 18.001
493 16 3 0 -5.351 10.575 18.001
494 16 1 0 -6.459 9.731 18.009
495 16 1 0 -7.817 10.137 18.003
496 16 1 0 -8.159 11.47 17.998
497 16 1 0 -5.79 11.94 17.997
498 16 1 0 -7.132 12.382 17.997
499 16 2 0 -5.938 5.044 17.994
500 16 2 0 -4.067 3.416 18.002
501 16 2 0 -1.746 4.305 18.003
502 16 2 0 -1.319 6.595 18.005
503 16 2 0 -5.549 7.332 17.97
504 16 2 0 -0.902 8.305 17.998
505 16 2 0 0.196 10.331 17.999
506 16 2 0 -1.102 12.444 18.001
507 16 2 0 -3.405 12.383 18.002
508 16 2 0 -6.387 8.683 18.03
509 16 2 0 -8.598 9.379 18.006
510 16 2 0 -9.196 11.786 17.998
511 16 2 0 -5.116 12.786 17.995
512 16 2 0 -7.349 13.447 17.997
513 17 1 0 -4.907 14.394 17.997
514 17 1 0 -3.876 13.484 18.002
515 17 1 0 -2.597 13.983 18.003
516 17 1 0 -2.379 15.379 18.003
517 17 3 0 -3.395 16.39 17.999
518 17 1 0 -4.651 15.788 17.991
519 17 3 0 -3.817 19.188 18.001
520 17 3 0 -3.045 17.932 17.999
521 17 1 0 -1.599 18.129 17.999
522 17 1 0 -0.89 19.327 18.0
523 17 1 0 -1.597 20.478 18.0
524 17 1 0 -2.986 20.388 18.001
525 17 3 0 -5.351 19.575 18.001
526 17 1 0 -6.459 18.731 18.009
527 17 1 0 -7.817 19.137 18.003
528 17 1 0 -8.159 20.47 17.998
529 17 1 0 -5.79 20.94 17.997
530 17 1 0 -7.132 21.382 17.997
531 17 2 0 -5.938 14.044 17.994
532 17 2 0 -4.067 12.416 18.002
533 17 2 0 -1.746 13.305 18.003
534 17 2 0 -1.319 15.595 18.005
535 17 2 0 -5.549 16.332 17.97
536 17 2 0 -0.902 17.305 17.998
537 17 2 0 0.196 19.331 17.999
538 17 2 0 -1.102 21.444 18.001
539 17 2 0 -3.405 21.383 18.002
540 17 2 0 -6.387 17.683 18.03
541 17 2 0 -8.598 18.379 18.006
542 17 2 0 -9.196 20.786 17.998
543 17 2 0 -5.116 21.786 17.995
544 17 2 0 -7.349 22.447 17.997
545 18 1 0 -4.907 14.394 8.997
546 18 1 0 -3.876 13.484 9.002
547 18 1 0 -2.597 13.983 9.003
548 18 1 0 -2.379 15.379 9.003
549 18 3 0 -3.395 16.39 8.999
550 18 1 0 -4.651 15.788 8.991
551 18 3 0 -3.817 19.188 9.001
552 18 3 0 -3.045 17.932 8.999
553 18 1 0 -1.599 18.129 8.999
554 18 1 0 -0.89 19.327 9.0
555 18 1 0 -1.597 20.478 9.0
556 18 1 0 -2.986 20.388 9.001
557 18 3 0 -5.351 19.575 9.001
558 18 1 0 -6.459 18.731 9.009
559 18 1 0 -7.817 19.137 9.003
560 18 1 0 -8.159 20.47 8.998
561 18 1 0 -5.79 20.94 8.997
562 18 1 0 -7.132 21.382 8.997
563 18 2 0 -5.938 14.044 8.994
564 18 2 0 -4.067 12.416 9.002
565 18 2 0 -1.746 13.305 9.003
566 18 2 0 -1.319 15.595 9.005
567 18 2 0 -5.549 16.332 8.97
568 18 2 0 -0.902 17.305 8.998
569 18 2 0 0.196 19.331 8.999
570 18 2 0 -1.102 21.444 9.001
571 18 2 0 -3.405 21.383 9.002
572 18 2 0 -6.387 17.683 9.03
573 18 2 0 -8.598 18.379 9.006
574 18 2 0 -9.196 20.786 8.998
575 18 2 0 -5.116 21.786 8.995
576 18 2 0 -7.349 22.447 8.997
577 19 1 0 -4.907 14.394 -0.003
578 19 1 0 -3.876 13.484 0.002
579 19 1 0 -2.597 13.983 0.003
580 19 1 0 -2.379 15.379 0.003
581 19 3 0 -3.395 16.39 -0.001
582 19 1 0 -4.651 15.788 -0.009
583 19 3 0 -3.817 19.188 0.001
584 19 3 0 -3.045 17.932 -0.001
585 19 1 0 -1.599 18.129 -0.001
586 19 1 0 -0.89 19.327 0.0
587 19 1 0 -1.597 20.478 0.0
588 19 1 0 -2.986 20.388 0.001
589 19 3 0 -5.351 19.575 0.001
590 19 1 0 -6.459 18.731 0.009
591 19 1 0 -7.817 19.137 0.003
592 19 1 0 -8.159 20.47 -0.002
593 19 1 0 -5.79 20.94 -0.003
594 19 1 0 -7.132 21.382 -0.003
595 19 2 0 -5.938 14.044 -0.006
596 19 2 0 -4.067 12.416 0.002
597 19 2 0 -1.746 13.305 0.003
598 19 2 0 -1.319 15.595 0.005
599 19 2 0 -5.549 16.332 -0.03
600 19 2 0 -0.902 17.305 -0.002
601 19 2 0 0.196 19.331 -0.001
602 19 2 0 -1.102 21.444 0.001
603 19 2 0 -3.405 21.383 0.002
604 19 2 0 -6.387 17.683 0.03
605 19 2 0 -8.598 18.379 0.006
606 19 2 0 -9.196 20.786 -0.002
607 19 2 0 -5.116 21.786 -0.005
608 19 2 0 -7.349 22.447 -0.003
609 20 1 0 -4.907 14.394 -9.003
610 20 1 0 -3.876 13.484 -8.998
611 20 1 0 -2.597 13.983 -8.997
612 20 1 0 -2.379 15.379 -8.997
613 20 3 0 -3.395 16.39 -9.001
614 20 1 0 -4.651 15.788 -9.009
615 20 3 0 -3.817 19.188 -8.999
616 20 3 0 -3.045 17.932 -9.001
617 20 1 0 -1.599 18.129 -9.001
618 20 1 0 -0.89 19.327 -9.0
619 20 1 0 -1.597 20.478 -9.0
620 20 1 0 -2.986 20.388 -8.999
621 20 3 0 -5.351 19.575 -8.999
622 20 1 0 -6.459 18.731 -8.991
623 20 1 0 -7.817 19.137 -8.997
624 20 1 0 -8.159 20.47 -9.002
625 20 1 0 -5.79 20.94 -9.003
626 20 1 0 -7.132 21.382 -9.003
627 20 2 0 -5.938 14.044 -9.006
628 20 2 0 -4.067 12.416 -8.998
629 20 2 0 -1.746 13.305 -8.997
630 20 2 0 -1.319 15.595 -8.995
631 20 2 0 -5.549 16.332 -9.03
632 20 2 0 -0.902 17.305 -9.002
633 20 2 0 0.196 19.331 -9.001
634 20 2 0 -1.102 21.444 -8.999
635 20 2 0 -3.405 21.383 -8.998
636 20 2 0 -6.387 17.683 -8.97
637 20 2 0 -8.598 18.379 -8.994
638 20 2 0 -9.196 20.786 -9.002
639 20 2 0 -5.116 21.786 -9.005
640 20 2 0 -7.349 22.447 -9.003
641 21 1 0 -4.907 14.394 -18.003
642 21 1 0 -3.876 13.484 -17.998
643 21 1 0 -2.597 13.983 -17.997
644 21 1 0 -2.379 15.379 -17.997
645 21 3 0 -3.395 16.39 -18.001
646 21 1 0 -4.651 15.788 -18.009
647 21 3 0 -3.817 19.188 -17.999
648 21 3 0 -3.045 17.932 -18.001
649 21 1 0 -1.599 18.129 -18.001
650 21 1 0 -0.89 19.327 -18.0
651 21 1 0 -1.597 20.478 -18.0
652 21 1 0 -2.986 20.388 -17.999
653 21 3 0 -5.351 19.575 -17.999
654 21 1 0 -6.459 18.731 -17.991
655 21 1 0 -7.817 19.137 -17.997
656 21 1 0 -8.159 20.47 -18.002
657 21 1 0 -5.79 20.94 -18.003
658 21 1 0 -7.132 21.382 -18.003
659 21 2 0 -5.938 14.044 -18.006
660 21 2 0 -4.067 12.416 -17.998
661 21 2 0 -1.746 13.305 -17.997
662 21 2 0 -1.319 15.595 -17.995
663 21 2 0 -5.549 16.332 -18.03
664 21 2 0 -0.902 17.305 -18.002
665 21 2 0 0.196 19.331 -18.001
666 21 2 0 -1.102 21.444 -17.999
667 21 2 0 -3.405 21.383 -17.998
668 21 2 0 -6.387 17.683 -17.97
669 21 2 0 -8.598 18.379 -17.994
670 21 2 0 -9.196 20.786 -18.002
671 21 2 0 -5.116 21.786 -18.005
672 21 2 0 -7.349 22.447 -18.003
673 22 1 0 -4.907 5.394 -18.003
674 22 1 0 -3.876 4.484 -17.998
675 22 1 0 -2.597 4.983 -17.997
676 22 1 0 -2.379 6.379 -17.997
677 22 3 0 -3.395 7.39 -18.001
678 22 1 0 -4.651 6.788 -18.009
679 22 3 0 -3.817 10.188 -17.999
680 22 3 0 -3.045 8.932 -18.001
681 22 1 0 -1.599 9.129 -18.001
682 22 1 0 -0.89 10.327 -18.0
683 22 1 0 -1.597 11.478 -18.0
684 22 1 0 -2.986 11.388 -17.999
685 22 3 0 -5.351 10.575 -17.999
686 22 1 0 -6.459 9.731 -17.991
687 22 1 0 -7.817 10.137 -17.997
688 22 1 0 -8.159 11.47 -18.002
689 22 1 0 -5.79 11.94 -18.003
690 22 1 0 -7.132 12.382 -18.003
691 22 2 0 -5.938 5.044 -18.006
692 22 2 0 -4.067 3.416 -17.998
693 22 2 0 -1.746 4.305 -17.997
694 22 2 0 -1.319 6.595 -17.995
695 22 2 0 -5.549 7.332 -18.03
696 22 2 0 -0.902 8.305 -18.002
697 22 2 0 0.196 10.331 -18.001
698 22 2 0 -1.102 12.444 -17.999
699 22 2 0 -3.405 12.383 -17.998
700 22 2 0 -6.387 8.683 -17.97
701 22 2 0 -8.598 9.379 -17.994
702 22 2 0 -9.196 11.786 -18.002
703 22 2 0 -5.116 12.786 -18.005
704 22 2 0 -7.349 13.447 -18.003
705 23 1 0 -4.907 -3.606 -18.003
706 23 1 0 -3.876 -4.516 -17.998
707 23 1 0 -2.597 -4.017 -17.997
708 23 1 0 -2.379 -2.621 -17.997
709 23 3 0 -3.395 -1.61 -18.001
710 23 1 0 -4.651 -2.212 -18.009
711 23 3 0 -3.817 1.188 -17.999
712 23 3 0 -3.045 -0.068 -18.001
713 23 1 0 -1.599 0.129 -18.001
714 23 1 0 -0.89 1.327 -18.0
715 23 1 0 -1.597 2.478 -18.0
716 23 1 0 -2.986 2.388 -17.999
717 23 3 0 -5.351 1.575 -17.999
718 23 1 0 -6.459 0.731 -17.991
719 23 1 0 -7.817 1.137 -17.997
720 23 1 0 -8.159 2.47 -18.002
721 23 1 0 -5.79 2.94 -18.003
722 23 1 0 -7.132 3.382 -18.003
723 23 2 0 -5.938 -3.956 -18.006
724 23 2 0 -4.067 -5.584 -17.998
725 23 2 0 -1.746 -4.695 -17.997
726 23 2 0 -1.319 -2.405 -17.995
727 23 2 0 -5.549 -1.668 -18.03
728 23 2 0 -0.902 -0.695 -18.002
729 23 2 0 0.196 1.331 -18.001
730 23 2 0 -1.102 3.444 -17.999
731 23 2 0 -3.405 3.383 -17.998
732 23 2 0 -6.387 -0.317 -17.97
733 23 2 0 -8.598 0.379 -17.994
734 23 2 0 -9.196 2.786 -18.002
735 23 2 0 -5.116 3.786 -18.005
736 23 2 0 -7.349 4.447 -18.003
737 24 1 0 -4.907 -12.606 -18.003
738 24 1 0 -3.876 -13.516 -17.998
739 24 1 0 -2.597 -13.017 -17.997
740 24 1 0 -2.379 -11.621 -17.997
741 24 3 0 -3.395 -10.61 -18.001
742 24 1 0 -4.651 -11.212 -18.009
743 24 3 0 -3.817 -7.812 -17.999
744 24 3 0 -3.045 -9.068 -18.001
745 24 1 0 -1.599 -8.871 -18.001
746 24 1 0 -0.89 -7.673 -18.0
747 24 1 0 -1.597 -6.522 -18.0
748 24 1 0 -2.986 -6.612 -17.999
749 24 3 0 -5.351 -7.425 -17.999
750 24 1 0 -6.459 -8.269 -17.991
751 24 1 0 -7.817 -7.863 -17.997
752 24 1 0 -8.159 -6.53 -18.002
753 24 1 0 -5.79 -6.06 -18.003
754 24 1 0 -7.132 -5.618 -18.003
755 24 2 0 -5.938 -12.956 -18.006
756 24 2 0 -4.067 -14.584 -17.998
757 24 2 0 -1.746 -13.695 -17.997
758 24 2 0 -1.319 -11.405 -17.995
759 24 2 0 -5.549 -10.668 -18.03
760 24 2 0 -0.902 -9.695 -18.002
761 24 2 0 0.196 -7.669 -18.001
762 24 2 0 -1.102 -5.556 -17.999
763 24 2 0 -3.405 -5.617 -17.998
764 24 2 0 -6.387 -9.317 -17.97
765 24 2 0 -8.598 -8.621 -17.994
766 24 2 0 -9.196 -6.214 -18.002
767 24 2 0 -5.116 -5.214 -18.005
768 24 2 0 -7.349 -4.553 -18.003
769 25 1 0 -4.907 -21.606 -18.003
770 25 1 0 -3.876 -22.516 -17.998
771 25 1 0 -2.597 -22.017 -17.997
772 25 1 0 -2.379 -20.621 -17.997
773 25 3 0 -3.395 -19.61 -18.001
774 25 1 0 -4.651 -20.212 -18.009
775 25 3 0 -3.817 -16.812 -17.999
776 25 3 0 -3.045 -18.068 -18.001
777 25 1 0 -1.599 -17.871 -18.001
778 25 1 0 -0.89 -16.673 -18.0
779 25 1 0 -1.597 -15.522 -18.0
780 25 1 0 -2.986 -15.612 -17.999
781 25 3 0 -5.351 -16.425 -17.999
782 25 1 0 -6.459 -17.269 -17.991
783 25 1 0 -7.817 -16.863 -17.997
784 25 1 0 -8.159 -15.53 -18.002
785 25 1 0 -5.79 -15.06 -18.003
786 25 1 0 -7.132 -14.618 -18.003
787 25 2 0 -5.938 -21.956 -18.006
788 25 2 0 -4.067 -23.584 -17.998
789 25 2 0 -1.746 -22.695 -17.997
790 25 2 0 -1.319 -20.405 -17.995
791 25 2 0 -5.549 -19.668 -18.03
792 25 2 0 -0.902 -18.695 -18.002
793 25 2 0 0.196 -16.669 -18.001
794 25 2 0 -1.102 -14.556 -17.999
795 25 2 0 -3.405 -14.617 -17.998
796 25 2 0 -6.387 -18.317 -17.97
797 25 2 0 -8.598 -17.621 -17.994
798 25 2 0 -9.196 -15.214 -18.002
799 25 2 0 -5.116 -14.214 -18.005
800 25 2 0 -7.349 -13.553 -18.003
801 26 1 0 -4.907 -30.606 -18.003
802 26 1 0 -3.876 -31.516 -17.998
803 26 1 0 -2.597 -31.017 -17.997
804 26 1 0 -2.379 -29.621 -17.997
805 26 3 0 -3.395 -28.61 -18.001
806 26 1 0 -4.651 -29.212 -18.009
807 26 3 0 -3.817 -25.812 -17.999
808 26 3 0 -3.045 -27.068 -18.001
809 26 1 0 -1.599 -26.871 -18.001
810 26 1 0 -0.89 -25.673 -18.0
811 26 1 0 -1.597 -24.522 -18.0
812 26 1 0 -2.986 -24.612 -17.999
813 26 3 0 -5.351 -25.425 -17.999
814 26 1 0 -6.459 -26.269 -17.991
815 26 1 0 -7.817 -25.863 -17.997
816 26 1 0 -8.159 -24.53 -18.002
817 26 1 0 -5.79 -24.06 -18.003
818 26 1 0 -7.132 -23.618 -18.003
819 26 2 0 -5.938 -30.956 -18.006
820 26 2 0 -4.067 -32.584 -17.998
821 26 2 0 -1.746 -31.695 -17.997
822 26 2 0 -1.319 -29.405 -17.995
823 26 2 0 -5.549 -28.668 -18.03
824 26 2 0 -0.902 -27.695 -18.002
825 26 2 0 0.196 -25.669 -18.001
826 26 2 0 -1.102 -23.556 -17.999
827 26 2 0 -3.405 -23.617 -17.998
828 26 2 0 -6.387 -27.317 -17.97
829 26 2 0 -8.598 -26.621 -17.994
830 26 2 0 -9.196 -24.214 -18.002
831 26 2 0 -5.116 -23.214 -18.005
832 26 2 0 -7.349 -22.553 -18.003
833 27 1 0 -4.907 -30.606 -9.003
834 27 1 0 -3.876 -31.516 -8.998
835 27 1 0 -2.597 -31.017 -8.997
836 27 1 0 -2.379 -29.621 -8.997
837 27 3 0 -3.395 -28.61 -9.001
838 27 1 0 -4.651 -29.212 -9.009
839 27 3 0 -3.817 -25.812 -8.999
840 27 3 0 -3.045 -27.068 -9.001
841 27 1 0 -1.599 -26.871 -9.001
842 27 1 0 -0.89 -25.673 -9.0
843 27 1 0 -1.597 -24.522 -9.0
844 27 1 0 -2.986 -24.612 -8.999
845 27 3 0 -5.351 -25.425 -8.999
846 27 1 0 -6.459 -26.269 -8.991
847 27 1 0 -7.817 -25.863 -8.997
848 27 1 0 -8.159 -24.53 -9.002
849 27 1 0 -5.79 -24.06 -9.003
850 27 1 0 -7.132 -23.618 -9.003
851 27 2 0 -5.938 -30.956 -9.006
852 27 2 0 -4.067 -32.584 -8.998
853 27 2 0 -1.746 -31.695 -8.997
854 27 2 0 -1.319 -29.405 -8.995
855 27 2 0 -5.549 -28.668 -9.03
856 27 2 0 -0.902 -27.695 -9.002
857 27 2 0 0.196 -25.669 -9.001
858 27 2 0 -1.102 -23.556 -8.999
859 27 2 0 -3.405 -23.617 -8.998
860 27 2 0 -6.387 -27.317 -8.97
861 27 2 0 -8.598 -26.621 -8.994
862 27 2 0 -9.196 -24.214 -9.002
863 27 2 0 -5.116 -23.214 -9.005
864 27 2 0 -7.349 -22.553 -9.003
865 28 1 0 -4.907 -30.606 -0.003
866 28 1 0 -3.876 -31.516 0.002
867 28 1 0 -2.597 -31.017 0.003
868 28 1 0 -2.379 -29.621 0.003
869 28 3 0 -3.395 -28.61 -0.001
870 28 1 0 -4.651 -29.212 -0.009
871 28 3 0 -3.817 -25.812 0.001
872 28 3 0 -3.045 -27.068 -0.001
873 28 1 0 -1.599 -26.871 -0.001
874 28 1 0 -0.89 -25.673 0.0
875 28 1 0 -1.597 -24.522 0.0
876 28 1 0 -2.986 -24.612 0.001
877 28 3 0 -5.351 -25.425 0.001
878 28 1 0 -6.459 -26.269 0.009
879 28 1 0 -7.817 -25.863 0.003
880 28 1 0 -8.159 -24.53 -0.002
881 28 1 0 -5.79 -24.06 -0.003
882 28 1 0 -7.132 -23.618 -0.003
883 28 2 0 -5.938 -30.956 -0.006
884 28 2 0 -4.067 -32.584 0.002
885 28 2 0 -1.746 -31.695 0.003
886 28 2 0 -1.319 -29.405 0.005
887 28 2 0 -5.549 -28.668 -0.03
888 28 2 0 -0.902 -27.695 -0.002
889 28 2 0 0.196 -25.669 -0.001
890 28 2 0 -1.102 -23.556 0.001
891 28 2 0 -3.405 -23.617 0.002
892 28 2 0 -6.387 -27.317 0.03
893 28 2 0 -8.598 -26.621 0.006
894 28 2 0 -9.196 -24.214 -0.002
895 28 2 0 -5.116 -23.214 -0.005
896 28 2 0 -7.349 -22.553 -0.003
897 29 1 0 -4.907 -30.606 8.997
898 29 1 0 -3.876 -31.516 9.002
899 29 1 0 -2.597 -31.017 9.003
900 29 1 0 -2.379 -29.621 9.003
901 29 3 0 -3.395 -28.61 8.999
902 29 1 0 -4.651 -29.212 8.991
903 29 3 0 -3.817 -25.812 9.001
904 29 3 0 -3.045 -27.068 8.999
905 29 1 0 -1.599 -26.871 8.999
906 29 1 0 -0.89 -25.673 9.0
907 29 1 0 -1.597 -24.522 9.0
908 29 1 0 -2.986 -24.612 9.001
909 29 3 0 -5.351 -25.425 9.001
910 29 1 0 -6.459 -26.269 9.009
911 29 1 0 -7.817 -25.863 9.003
912 29 1 0 -8.159 -24.53 8.998
913 29 1 0 -5.79 -24.06 8.997
914 29 1 0 -7.132 -23.618 8.997
915 29 2 0 -5.938 -30.956 8.994
916 29 2 0 -4.067 -32.584 9.002
917 29 2 0 -1.746 -31.695 9.003
918 29 2 0 -1.319 -29.405 9.005
919 29 2 0 -5.549 -28.668 8.97
920 29 2 0 -0.902 -27.695 8.998
921 29 2 0 0.196 -25.669 8.999
922 29 2 0 -1.102 -23.556 9.001
923 29 2 0 -3.405 -23.617 9.002
924 29 2 0 -6.387 -27.317 9.03
925 29 2 0 -8.598 -26.621 9.006
926 29 2 0 -9.196 -24.214 8.998
927 29 2 0 -5.116 -23.214 8.995
928 29 2 0 -7.349 -22.553 8.997
929 30 1 0 -4.907 -30.606 17.997
930 30 1 0 -3.876 -31.516 18.002
931 30 1 0 -2.597 -31.017 18.003
932 30 1 0 -2.379 -29.621 18.003
933 30 3 0 -3.395 -28.61 17.999
934 30 1 0 -4.651 -29.212 17.991
935 30 3 0 -3.817 -25.812 18.001
936 30 3 0 -3.045 -27.068 17.999
937 30 1 0 -1.599 -26.871 17.999
938 30 1 0 -0.89 -25.673 18.0
939 30 1 0 -1.597 -24.522 18.0
940 30 1 0 -2.986 -24.612 18.001
941 30 3 0 -5.351 -25.425 18.001
942 30 1 0 -6.459 -26.269 18.009
943 30 1 0 -7.817 -25.863 18.003